version 3
run general-0-20230816-18:45:34-3344
attr configname general
attr datetime 20230816-18:45:34
attr datetimef 20230816-184534
attr experiment general
attr inifile omnetpp.ini
attr iterationvars ""
attr iterationvarsd ""
attr iterationvarsf ""
attr measurement ""
attr network fogsim1.net1
attr processid 3344
attr repetition 0
attr replication #0
attr resultdir results
attr runnumber 0
attr seedset 0
config network fogsim1.net1
config sim-time-limit 5000ms
config simtime-resolution 10us

vector 0 net1.pc9 "Messages Delay" ETV
vector 1 net1.pc7 "Messages Delay" ETV
vector 2 net1.pc1 "Messages Delay" ETV
vector 3 net1.pc3 "Messages Delay" ETV
vector 4 net1.pc5 "Messages Delay" ETV
vector 5 net1.pc10 "Messages Delay" ETV
vector 6 net1.pc8 "Messages Delay" ETV
vector 7 net1.pc2 "Messages Delay" ETV
vector 8 net1.pc4 "Messages Delay" ETV
vector 9 net1.pc6 "Messages Delay" ETV
0	148	0.15926	125.02
0	392	0.32426	253.56
0	567	0.41426	307.88
0	1015	0.57926	69.01
0	1064	0.59426	484.1
0	1210	0.63926	497.7
0	1255	0.65426	471.52
0	1299	0.66926	155.38
0	1346	0.68426	89.02
0	1544	0.74426	63.25
0	1590	0.75926	552.67
0	1680	0.78926	79.79
0	1723	0.80426	160.53
0	1761	0.81926	77.3
0	1942	0.89426	613.8
0	2091	0.96926	86.55
0	2117	0.98426	637.33
0	2245	1.05926	641.41
0	2441	1.16426	678.68
0	2569	1.22426	588.72
0	2637	1.25426	543.27
0	2778	1.31426	539.89
0	2813	1.32926	505.77
0	2985	1.40426	513.68
0	3116	1.46426	181.72
0	3191	1.50926	502.72
0	3221	1.52426	134.36
0	3369	1.61426	80.26
0	3394	1.62926	560.23
0	3419	1.64426	68.39
0	3600	1.74926	77.62
0	3723	1.82426	79.35
0	3779	1.85426	67.84
0	3965	1.95926	86.31
0	4091	2.03426	70.76
0	4138	2.06426	65.96
0	4219	2.10926	76.18
0	4269	2.13926	64.84
0	4346	2.18426	80
0	4395	2.21426	568.09
0	4519	2.28926	615.36
0	4601	2.33426	616.46
0	4629	2.34926	662.51
0	4681	2.37926	629.63
0	4783	2.43926	64.37
0	4966	2.54426	690.07
0	5095	2.61926	67.02
0	5170	2.66426	78.91
0	5214	2.69426	70.87
0	5344	2.76926	733.06
0	5396	2.79926	763.34
0	5479	2.84426	774.06
0	5587	2.90426	66.83
0	5614	2.91926	85.04
0	5643	2.93426	64.46
0	5672	2.94926	810.04
0	5778	3.00926	69.1
0	5828	3.03926	66
0	5878	3.06926	866.54
0	5976	3.12926	885.11
0	5998	3.14426	80.76
0	6219	3.27926	64.16
0	6339	3.35426	947.98
0	6362	3.36926	957.23
0	6435	3.41426	977.21
0	6463	3.42926	978.4
0	6509	3.45926	80.34
0	6569	3.48926	1004.1
0	6602	3.50426	987.81
0	6691	3.54926	1030.28
0	6847	3.62426	70.06
0	6875	3.63926	94.23
0	6930	3.66926	1050.63
0	7061	3.74426	77.81
0	7193	3.81926	1120.06
0	7297	3.87926	71.83
0	7369	3.92426	1159.61
0	7418	3.95426	1156.04
0	7465	3.98426	1155.04
0	7629	4.07426	1141.64
0	7656	4.08926	1166.86
0	7716	4.11926	1152.55
0	7812	4.16426	1157.87
0	7871	4.19426	1157.24
0	7927	4.22426	71.24
0	8048	4.29926	1164.22
0	8095	4.32926	76.94
0	8222	4.40426	1159.75
0	8269	4.43426	1154.71
0	8371	4.49426	1149.44
0	8621	4.65926	1137.29
0	8645	4.67426	69.54
0	8689	4.70426	1142.62
0	8881	4.82426	1157.38
0	9005	4.89926	1157.74
0	9054	4.92926	1154.84
1	153	0.16047	125.02
1	320	0.28047	211.18
1	508	0.38547	280.89
1	680	0.46047	98.44
1	793	0.50547	70.85
1	925	0.55047	152.09
1	970	0.56547	430.02
1	1021	0.58047	175.22
1	1067	0.59547	71.11
1	1119	0.61047	66.2
1	1305	0.67047	136.51
1	1350	0.68547	129.03
1	1448	0.71547	175.02
1	1501	0.73047	513.58
1	1547	0.74547	72.77
1	1596	0.76047	84.09
1	1767	0.82047	71.92
1	1839	0.85047	611.23
1	1910	0.88047	145.06
1	1978	0.91047	72.62
1	2008	0.92547	676.67
1	2036	0.94047	625.64
1	2094	0.97047	67.42
1	2145	1.00047	688.92
1	2223	1.04547	72.61
1	2273	1.07547	67.61
1	2356	1.12047	671.52
1	2382	1.13547	664.94
1	2414	1.15047	72.56
1	2502	1.19547	64.87
1	2533	1.21047	79.42
1	2640	1.25547	67.64
1	2675	1.27047	98.34
1	2715	1.28547	120.77
1	2750	1.30047	96.62
1	2782	1.31547	70.77
1	2818	1.33047	525.12
1	2886	1.36047	499.73
1	2922	1.37547	70.21
1	3092	1.45047	481.58
1	3117	1.46547	175.3
1	3276	1.55547	517.93
1	3302	1.57047	69.67
1	3420	1.64547	71.35
1	3449	1.66047	544.49
1	3521	1.70547	536.21
1	3605	1.75047	529.25
1	3653	1.78047	70.19
1	3725	1.82547	506.79
1	3755	1.84047	514.94
1	3834	1.88547	68.05
1	3886	1.91547	79.22
1	3995	1.97547	509.32
1	4046	2.00547	521.42
1	4093	2.03547	56.6
1	4297	2.15547	550.62
1	4323	2.17047	559.48
1	4660	2.36547	72.95
1	4737	2.41047	72.39
1	4764	2.42547	643.34
1	4860	2.48547	663.21
1	4912	2.51547	80.63
1	4942	2.53047	61.68
1	5047	2.59047	700.42
1	5098	2.62047	66.05
1	5125	2.63547	727.66
1	5171	2.66547	739.96
1	5296	2.74047	739.24
1	5534	2.87547	80.54
1	5783	3.01047	841.3
1	5859	3.05547	64.23
1	6075	3.19047	914.31
1	6198	3.26547	59.78
1	6297	3.32547	78.65
1	6342	3.35547	74.16
1	6385	3.38547	972.79
1	6572	3.49047	72.52
1	6633	3.52047	72.3
1	6790	3.59547	1009.24
1	6823	3.61047	1032.2
1	6851	3.62547	70.46
1	6906	3.65547	80.44
1	7034	3.73047	1073.88
1	7065	3.74547	1096.78
1	7220	3.83547	64.51
1	7246	3.85047	1120.33
1	7348	3.91047	67.09
1	7419	3.95547	1154.13
1	7468	3.98547	67.39
1	7518	4.01547	1155.76
1	7604	4.06047	1155.22
1	7845	4.18047	102.88
1	7930	4.22547	1144.51
1	7955	4.24047	1173.12
1	8051	4.30047	1151.71
1	8151	4.36047	80.14
1	8177	4.37547	58.5
1	8272	4.43547	1153.67
1	8300	4.45047	1136.65
1	8347	4.48047	64.02
1	8394	4.51047	1159.14
1	8417	4.52547	72.77
1	8528	4.60047	1152.46
1	8624	4.66047	64.64
1	8766	4.75047	50.22
1	8884	4.82547	60.84
1	8933	4.85547	1158.07
1	8961	4.87047	1138.81
1	9114	4.96047	66.64
1	9143	4.97547	1139.78
2	154	0.16051	125.02
2	395	0.32551	54.55
2	446	0.35551	285.64
2	480	0.37051	65.95
2	642	0.44551	68.54
2	681	0.46051	86.87
2	794	0.50551	111.09
2	836	0.52051	103.59
2	883	0.53551	391.52
2	927	0.55051	100.21
2	1022	0.58051	401.35
2	1069	0.59551	71.9
2	1120	0.61051	112.6
2	1258	0.65551	78.06
2	1400	0.70051	96.07
2	1643	0.77551	104.63
2	1684	0.79051	571.9
2	1727	0.80551	102.98
2	1911	0.88051	95.16
2	1944	0.89551	620.09
2	2197	1.03051	69.8
2	2444	1.16551	65.15
2	2534	1.21051	633.17
2	2850	1.34551	113.32
2	3093	1.45051	460.86
2	3145	1.48051	67.95
2	3195	1.51051	67.86
2	3225	1.52551	496.02
2	3450	1.66051	528.14
2	3630	1.76551	493.98
2	3702	1.81051	499.06
2	3726	1.82551	75.39
2	3756	1.84051	69.35
2	3810	1.87051	527.95
2	4047	2.00551	494.86
2	4094	2.03551	488.4
2	4250	2.12551	544.15
2	4298	2.15551	536.26
2	4420	2.23051	576.54
2	4524	2.29051	88.29
2	4602	2.33551	617.44
2	4685	2.38051	77.52
2	4765	2.42551	678.49
2	5048	2.59051	708.83
2	5245	2.71051	723.1
2	5452	2.83051	778.93
2	5507	2.86051	777.72
2	5733	2.98051	820.36
2	5930	3.10051	866.93
2	6046	3.17551	65.19
2	6093	3.20551	904.67
2	6173	3.25051	917.86
2	6343	3.35551	945.47
2	6515	3.46051	986.08
2	6695	3.55051	87.46
2	6907	3.65551	1040.24
2	7247	3.85051	87.86
2	7319	3.89551	1134.7
2	7662	4.09051	1159.47
2	7722	4.12051	1158.23
2	7817	4.16551	93.49
2	7931	4.22551	110.96
2	8178	4.37551	80.77
2	8202	4.39051	1147.2
2	8250	4.42051	1145.48
2	8395	4.51051	1133.9
2	8741	4.73551	1121.13
2	8767	4.75051	67.24
2	8860	4.81051	1159.37
2	8910	4.84051	1152.27
2	9030	4.91551	63.8
3	194	0.19217	155.02
3	484	0.37217	297.22
3	510	0.38717	310.38
3	838	0.52217	381.02
3	885	0.53717	70.22
3	1217	0.64217	466
3	1261	0.65717	88.4
3	1308	0.67217	464.57
3	1601	0.76217	86.4
3	1644	0.77717	70.74
3	1841	0.85217	612.71
3	1877	0.86717	614.71
3	1946	0.89717	75.18
3	1983	0.91217	629.51
3	2010	0.92717	70.54
3	2098	0.97217	646.22
3	2148	1.00217	660.9
3	2176	1.01717	673.91
3	2199	1.03217	677.34
3	2384	1.13717	70.54
3	2477	1.18217	693.66
3	2574	1.22717	79.17
3	2644	1.25717	76.86
3	2786	1.31717	531.59
3	2890	1.36217	108.21
3	3061	1.43717	480.73
3	3095	1.45217	527.16
3	3147	1.48217	71.32
3	3227	1.52717	497.66
3	3280	1.55717	58.85
3	3328	1.58717	522.97
3	3523	1.70717	69.78
3	3781	1.85717	69.4
3	3836	1.88717	68.94
3	3888	1.91717	99.52
3	3919	1.93217	83.52
3	3944	1.94717	499.19
3	3998	1.97717	88.68
3	4023	1.99217	72.61
3	4073	2.02217	67.69
3	4125	2.05217	503.5
3	4252	2.12717	540.52
3	4371	2.20217	64.32
3	4477	2.26217	598.93
3	4551	2.30717	70.74
3	4605	2.33717	70.89
3	4662	2.36717	630.89
3	4788	2.44217	71.05
3	4915	2.51717	71.94
3	4969	2.54717	71.59
3	5320	2.75717	744.83
3	5375	2.78717	768.28
3	5647	2.93717	814.77
3	5707	2.96717	69.89
3	5888	3.07217	71.78
3	5932	3.10217	879.54
3	6025	3.16217	61.21
3	6048	3.17717	917.27
3	6077	3.19217	57.72
3	6299	3.32717	930.33
3	6320	3.34217	964.74
3	6439	3.41717	71.27
3	6545	3.47717	993.58
3	6604	3.50717	994.78
3	6670	3.53717	87.74
3	6766	3.58217	1038.49
3	6828	3.61217	104.65
3	6852	3.62717	91.15
3	7143	3.79217	1105.75
3	7249	3.85217	63.53
3	7277	3.86717	1140.83
3	7301	3.88217	1156.45
3	7321	3.89717	72.64
3	7350	3.91217	1156.83
3	7396	3.94217	85.74
3	7492	4.00217	1135.62
3	7522	4.01717	65.05
3	7576	4.04717	72.54
3	7606	4.06217	1172.3
3	7631	4.07717	67.14
3	7725	4.12217	76.18
3	7905	4.21217	1176.65
3	7933	4.22717	72.64
3	8126	4.34717	1134.14
3	8204	4.39217	61.52
3	8251	4.42217	74.82
3	8277	4.43717	69.31
3	8579	4.63217	74.89
3	8769	4.75217	1143.27
3	8792	4.76717	83.38
3	8888	4.82717	72.37
3	8937	4.85717	73.13
3	9058	4.93217	68.53
4	197	0.19401	157.98
4	544	0.40401	298.35
4	615	0.43401	329.34
4	650	0.44901	127.33
4	803	0.50901	72.17
4	846	0.52401	94.84
4	931	0.55401	408.06
4	1127	0.61401	443.82
4	1222	0.64401	464.82
4	1359	0.68901	73.02
4	1460	0.71901	84.6
4	1511	0.73401	84.83
4	1560	0.74901	106.13
4	1608	0.76401	547.23
4	1916	0.88401	594.73
4	1950	0.89901	79.31
4	1985	0.91401	70.86
4	2042	0.94401	71.15
4	2124	0.98901	69.14
4	2149	1.00401	80.55
4	2178	1.01901	68.11
4	2226	1.04901	667.69
4	2419	1.15401	679.89
4	2449	1.16901	70.71
4	2541	1.21401	603.91
4	2722	1.28901	87.01
4	2755	1.30401	529.82
4	2893	1.36401	72.85
4	3066	1.43901	57.01
4	3148	1.48401	91.65
4	3255	1.54401	513.62
4	3282	1.55901	80.99
4	3303	1.57401	72.05
4	3425	1.64901	540.84
4	3502	1.69401	67.89
4	3556	1.72401	517.25
4	3609	1.75401	518.45
4	3633	1.76901	69.9
4	3656	1.78401	515.74
4	3785	1.85901	514.44
4	3814	1.87401	70.68
4	3975	1.96401	497.9
4	4052	2.00901	68.88
4	4075	2.02401	96.75
4	4101	2.03901	523.59
4	4197	2.09901	528.72
4	4227	2.11401	65.28
4	4327	2.17401	66.15
4	4350	2.18901	67.28
4	4452	2.24901	63.1
4	4641	2.35401	79.31
4	4691	2.38401	70.89
4	4716	2.39901	72.69
4	4973	2.54901	700.15
4	5052	2.59401	88.14
4	5103	2.62401	86.54
4	5197	2.68401	72.99
4	5353	2.77401	58.16
4	5512	2.86401	799.56
4	5596	2.90901	79.29
4	5650	2.93901	76.02
4	5708	2.96901	71.78
4	5786	3.01401	858.21
4	5807	3.02901	74.16
4	6026	3.16401	896.27
4	6177	3.25401	103.84
4	6254	3.29901	934.9
4	6442	3.41901	58.59
4	6579	3.49401	63.12
4	6609	3.50901	1004.86
4	6699	3.55401	78.97
4	6734	3.56901	71.94
4	6798	3.59901	109.82
4	6829	3.61401	95.26
4	6910	3.65901	70.35
4	6992	3.70401	58.72
4	7014	3.71901	1072.13
4	7069	3.74901	67.37
4	7119	3.77901	1094.74
4	7145	3.79401	1106.45
4	7175	3.80901	73.82
4	7251	3.85401	71.72
4	7304	3.88401	65.72
4	7352	3.91401	69.62
4	7421	3.95901	68.16
4	7550	4.03401	69.25
4	7578	4.04901	69.34
4	7609	4.06401	80.68
4	7691	4.10901	71.86
4	7790	4.15401	72.54
4	7849	4.18401	1187.61
4	7906	4.21401	1171.28
4	7980	4.25901	70.86
4	8076	4.31901	77.71
4	8154	4.36401	70.68
4	8305	4.45401	67.63
4	8353	4.48401	1171.6
4	8440	4.54401	68.69
4	8580	4.63401	1150.32
4	8771	4.75401	1123
5	211	0.20426	168.02
5	316	0.27926	212.45
5	505	0.38426	279.53
5	751	0.48926	354.33
5	879	0.53426	73.04
5	966	0.56426	66.3
5	1113	0.60926	434.54
5	1444	0.71426	178.87
5	1803	0.83426	585.98
5	1835	0.84926	112.61
5	1873	0.86426	70.21
5	1973	0.90926	65.37
5	2031	0.93926	71.86
5	2060	0.95426	135.48
5	2171	1.01426	85.81
5	2221	1.04426	658.9
5	2272	1.07426	653.08
5	2352	1.11926	95.2
5	2410	1.14926	78.59
5	2600	1.23926	572.71
5	2671	1.26926	78.91
5	2745	1.29926	84.04
5	2846	1.34426	66.88
5	2882	1.35926	117.18
5	3020	1.41926	69.57
5	3057	1.43426	93.99
5	3248	1.53926	51.49
5	3298	1.56926	80.84
5	3322	1.58426	75.63
5	3348	1.59926	539.5
5	3443	1.65926	515.37
5	3549	1.71926	68.94
5	3676	1.79426	77.25
5	3833	1.88426	499.58
5	4020	1.98926	70.39
5	4044	2.00426	506.25
5	4167	2.07926	536.8
5	4443	2.24426	64.37
5	4494	2.27426	598.7
5	4733	2.40926	93.84
5	4761	2.42426	67.63
5	4857	2.48426	679.17
5	4911	2.51426	676.3
5	4938	2.52926	688.01
5	5022	2.57426	697.97
5	5043	2.58926	710.16
5	5123	2.63426	722.17
5	5146	2.64926	85.22
5	5265	2.72426	70.34
5	5291	2.73926	80.69
5	5424	2.81426	777.6
5	5729	2.97926	78.38
5	5856	3.05426	854.75
5	5910	3.08426	70.59
5	5953	3.11426	78.9
5	6021	3.15926	71.86
5	6044	3.17426	911.33
5	6072	3.18926	71.4
5	6168	3.24926	913.47
5	6295	3.32426	919.37
5	6629	3.51926	978.35
5	6981	3.69926	1063.65
5	7140	3.78926	1074.1
5	7271	3.86426	69.33
5	7344	3.90926	76.53
5	7569	4.04426	1129.83
5	7752	4.13426	1178.45
5	7896	4.20926	87.25
5	7974	4.25426	70.32
5	8022	4.28426	77.54
5	8073	4.31426	1146.96
5	8148	4.35926	1157.06
5	8343	4.47926	1140.4
5	8391	4.50926	71
5	8416	4.52426	1146.71
5	8436	4.53926	69.83
5	8458	4.55426	1144.15
5	8549	4.61426	68.7
5	8598	4.64426	1122.87
5	8716	4.71926	1127.58
5	8789	4.76426	1133.13
5	8807	4.77926	1157.18
5	8835	4.79426	1131.65
5	8930	4.85426	1157.05
5	8956	4.86926	1141.81
5	9082	4.94426	1146.16
5	9110	4.95926	1124.7
5	9142	4.97426	1139.49
6	235	0.22047	182
6	423	0.34047	268.17
6	445	0.35547	71.02
6	570	0.41547	66.45
6	608	0.43047	111.6
6	755	0.49047	378.91
6	1163	0.62547	103.29
6	1399	0.70047	104.34
6	1642	0.77547	558.81
6	1726	0.80547	129.07
6	1805	0.83547	647.84
6	1874	0.86547	653.33
6	2064	0.95547	104.49
6	2173	1.01547	65.79
6	2473	1.18047	70.31
6	2573	1.22547	68.72
6	2849	1.34547	96.8
6	2989	1.40547	72.17
6	3024	1.42047	478.13
6	3060	1.43547	70.31
6	3166	1.49547	74.87
6	3194	1.51047	489.9
6	3251	1.54047	68.47
6	3324	1.58547	544.64
6	3352	1.60047	79.76
6	3398	1.63047	558.96
6	3472	1.67547	65.44
6	3943	1.94547	508.01
6	3969	1.96047	70.61
6	4223	2.11047	535.27
6	4276	2.14047	71.25
6	4347	2.18547	55.09
6	4396	2.21547	75.11
6	4446	2.24547	582.04
6	4523	2.29047	58.51
6	4577	2.32047	618.96
6	4634	2.35047	611.92
6	4710	2.39547	75.32
6	4811	2.45547	669.13
6	4996	2.56047	701.25
6	5217	2.69547	69.23
6	5244	2.71047	724.61
6	5349	2.77047	72.38
6	5399	2.80047	769.28
6	5429	2.81547	85.79
6	5562	2.89047	800.06
6	5591	2.90547	71.96
6	5618	2.92047	66.9
6	5645	2.93547	71.09
6	5677	2.95047	808.64
6	5732	2.98047	67.41
6	5755	2.99547	64.47
6	5804	3.02547	71.22
6	5911	3.08547	884.36
6	5956	3.11547	78.79
6	5980	3.13047	80.14
6	6045	3.17547	66.84
6	6143	3.23547	915.81
6	6225	3.28047	64.37
6	6252	3.29547	72.42
6	6271	3.31047	935.98
6	6666	3.53547	75.72
6	6731	3.56547	1014.04
6	6878	3.64047	1042.17
6	6933	3.67047	1049.63
6	6985	3.70047	65.11
6	7168	3.80547	80.02
6	7273	3.86547	71.08
6	7393	3.94047	1157.43
6	7571	4.04547	71.35
6	7630	4.07547	68.48
6	7721	4.12047	76.32
6	7755	4.13547	120.19
6	7874	4.19547	87.72
6	7900	4.21047	127.24
6	7975	4.25547	62.09
6	8005	4.27047	73.51
6	8101	4.33047	1141.86
6	8224	4.40547	56.9
6	8439	4.54047	1125.96
6	8577	4.63047	1143.43
6	8690	4.70547	66.35
6	8810	4.78047	70.06
6	8837	4.79547	1137.91
6	9009	4.90047	1142.78
6	9170	4.99047	66.85
7	256	0.23551	199.58
7	321	0.28051	211.6
7	542	0.40051	72.27
7	609	0.43051	69.02
7	715	0.47551	78.7
7	756	0.49051	351.73
7	971	0.56551	78.02
7	1165	0.62551	96.84
7	1214	0.64051	463.74
7	1306	0.67051	103.93
7	1351	0.68551	504.07
7	1449	0.71551	113.28
7	1502	0.73051	104.68
7	1548	0.74551	81.01
7	1597	0.76051	127.33
7	1768	0.82051	156.77
7	1875	0.86551	616.68
7	1979	0.91051	661
7	2009	0.92551	151.74
7	2095	0.97051	649.17
7	2119	0.98551	695.4
7	2249	1.06051	66.31
7	2274	1.07551	685.47
7	2323	1.10551	681.33
7	2415	1.15051	693.16
7	2474	1.18051	71.36
7	2605	1.24051	602.52
7	2676	1.27051	85.83
7	2716	1.28551	559.91
7	2887	1.36051	473.09
7	2954	1.39051	495.89
7	3025	1.42051	465.57
7	3325	1.58551	527.93
7	3399	1.63051	541.31
7	3553	1.72051	518.96
7	3577	1.73551	557.23
7	3677	1.79551	72.47
7	3916	1.93051	72.66
7	3996	1.97551	499.25
7	4072	2.02051	505.19
7	4195	2.09551	539.6
7	4447	2.24551	595.91
7	4578	2.32051	71.91
7	4635	2.35051	67.93
7	4812	2.45551	663.33
7	4888	2.50051	676.24
7	4943	2.53051	71.11
7	4967	2.54551	681.94
7	4997	2.56051	72.89
7	5350	2.77051	93.56
7	5535	2.87551	78.8
7	5563	2.89051	80.94
7	5619	2.92051	806.66
7	5646	2.93551	83.1
7	5704	2.96551	82.77
7	5883	3.07051	860.99
7	6001	3.14551	897.69
7	6272	3.31051	927.79
7	6386	3.38551	963.54
7	6417	3.40051	69.87
7	6667	3.53551	78.93
7	6732	3.56551	74.38
7	6764	3.58051	1021.62
7	6824	3.61051	1012.58
7	6879	3.64051	87.03
7	6986	3.70051	71.93
7	7092	3.76051	1091.64
7	7196	3.82051	1115.88
7	7274	3.86551	1124.59
7	7441	3.97051	1121.49
7	7519	4.01551	1128.09
7	7572	4.04551	72.66
7	7901	4.21051	1146.66
7	7976	4.25551	1157.19
7	8006	4.27051	1137.7
7	8102	4.33051	1172.96
7	8152	4.36051	1118.4
7	8273	4.43551	57.37
7	8482	4.57051	1141.57
7	8646	4.67551	1142.1
7	8885	4.82551	1152.23
7	9057	4.93051	1165.37
7	9084	4.94551	88.92
7	9115	4.96051	1136.68
8	280	0.25217	213.73
8	370	0.31217	241
8	398	0.32717	71.56
8	449	0.35717	72.81
8	574	0.41717	312.07
8	612	0.43217	71.89
8	644	0.44717	88.32
8	683	0.46217	355.14
8	719	0.47717	87.3
8	797	0.50717	84.77
8	979	0.56717	71.98
8	1026	0.58217	431.91
8	1073	0.59717	71.42
8	1122	0.61217	461.75
8	1169	0.62717	70.22
8	1356	0.68717	84.82
8	1452	0.71717	506.63
8	1507	0.73217	587.36
8	1554	0.74717	120.1
8	1688	0.79217	569.8
8	1772	0.82217	573.93
8	1912	0.88217	71.41
8	2039	0.94217	653.63
8	2122	0.98717	660.53
8	2250	1.06217	70.71
8	2276	1.07717	648.93
8	2325	1.10717	677.92
8	2416	1.15217	72.66
8	2448	1.16717	72.33
8	2503	1.19717	72.28
8	2538	1.21217	85.93
8	2609	1.24217	96.05
8	2683	1.27217	529.98
8	2717	1.28717	514.8
8	2753	1.30217	68.83
8	2924	1.37717	104.77
8	2956	1.39217	82.12
8	3031	1.42217	119.41
8	3121	1.46717	69.47
8	3168	1.49717	490.82
8	3451	1.66217	72.12
8	3499	1.69217	530.06
8	3608	1.75217	67.93
8	3631	1.76717	496.79
8	3727	1.82717	72.48
8	3811	1.87217	499.71
8	3867	1.90217	498.86
8	4099	2.03717	66.84
8	4171	2.08217	530.97
8	4224	2.11217	72.06
8	4278	2.14217	554.4
8	4326	2.17217	552.11
8	4449	2.24717	70.16
8	4526	2.29217	609.7
8	4637	2.35217	632.95
8	4687	2.38217	96.84
8	4713	2.39717	646.5
8	4839	2.47217	65.71
8	4890	2.50217	114.07
8	5000	2.56217	69.32
8	5051	2.59217	67.85
8	5073	2.60717	86.29
8	5101	2.62217	723.48
8	5174	2.66717	733.93
8	5298	2.74217	732.1
8	5455	2.83217	83.03
8	5508	2.86217	82.76
8	5565	2.89217	784.33
8	5592	2.90717	810.9
8	5736	2.98217	835.3
8	5758	2.99717	72.58
8	5832	3.04217	863.08
8	6119	3.22217	917.35
8	6202	3.26717	915.15
8	6229	3.28217	71.39
8	6253	3.29717	71.25
8	6389	3.38717	71.55
8	6419	3.40217	976.92
8	6469	3.43217	974.42
8	6516	3.46217	986.27
8	6637	3.52217	997.24
8	6696	3.55217	102.38
8	6733	3.56717	69.01
8	6794	3.59717	72.31
8	6882	3.64217	112.45
8	6958	3.68717	88.58
8	6990	3.70217	1067.88
8	7036	3.73217	66.51
8	7096	3.76217	66.26
8	7223	3.83717	72.81
8	7470	3.98717	83.58
8	7548	4.03217	1143.38
8	7664	4.09217	81.02
8	7688	4.10717	71.89
8	7785	4.15217	1158.29
8	7818	4.16717	87.23
8	7847	4.18217	1157.59
8	7977	4.25717	96.18
8	8104	4.33217	73.75
8	8180	4.37717	58.03
8	8303	4.45217	1157.02
8	8506	4.58717	1160.01
8	8555	4.61717	1149.26
8	8722	4.72217	1158.27
8	8983	4.88717	1138.45
8	9011	4.90217	75.59
8	9031	4.91717	71.47
8	9116	4.96217	71.65
8	9171	4.99217	69.18
9	282	0.25401	215.43
9	350	0.29901	225.65
9	452	0.35901	70.74
9	576	0.41901	68.85
9	686	0.46401	352.29
9	722	0.47901	85.43
9	982	0.56901	80.11
9	1032	0.58401	125.05
9	1080	0.59901	101.01
9	1173	0.62901	96.54
9	1264	0.65901	199.39
9	1409	0.70401	521.39
9	1649	0.77901	79.4
9	1692	0.79401	580.33
9	1732	0.80901	112.26
9	1776	0.82401	168.09
9	1846	0.85401	72.9
9	2012	0.92901	70.58
9	2069	0.95901	643.57
9	2201	1.03401	72.02
9	2386	1.13901	681.08
9	2480	1.18401	70.39
9	2509	1.19901	636.75
9	2612	1.24401	653.27
9	2686	1.27401	125.85
9	2789	1.31901	96.66
9	2823	1.33401	88.28
9	2855	1.34901	135.52
9	2958	1.39401	483.11
9	2996	1.40901	88.55
9	3036	1.42401	71.43
9	3097	1.45401	69.8
9	3125	1.46901	493.63
9	3199	1.51401	62.74
9	3330	1.58901	71.03
9	3476	1.67901	85.92
9	3581	1.73901	79.58
9	3682	1.79901	515.34
9	3839	1.88901	61.25
9	3868	1.90401	80.35
9	3922	1.93401	515.46
9	3946	1.94901	509.52
9	4025	1.99401	104.34
9	4145	2.06901	70.31
9	4279	2.14401	78.72
9	4375	2.20401	576.65
9	4500	2.27901	69.02
9	4608	2.33901	57.39
9	4740	2.41401	658.6
9	4789	2.44401	655.87
9	4815	2.45901	72.28
9	4867	2.48901	71.83
9	5004	2.56401	73.01
9	5128	2.63901	716.97
9	5151	2.65401	693.8
9	5247	2.71401	72.97
9	5272	2.72901	735.62
9	5321	2.75901	70.52
9	5402	2.80401	84.67
9	5457	2.83401	71.74
9	5567	2.89401	825.45
9	5760	2.99901	79.38
9	5835	3.04401	874.37
9	5891	3.07401	69.79
9	5933	3.10401	78.56
9	5960	3.11901	883.58
9	6051	3.17901	911.02
9	6233	3.28401	931.79
9	6470	3.43401	992.86
9	6518	3.46401	67.57
9	6639	3.52401	69.7
9	6767	3.58401	84.56
9	6855	3.62901	67.6
9	6885	3.64401	80.53
9	6960	3.68901	87.71
9	7038	3.73401	1063.37
9	7198	3.82401	133.45
9	7225	3.83901	1129.74
9	7278	3.86901	71.6
9	7324	3.89901	71.43
9	7443	3.97401	72.22
9	7495	4.00401	69.88
9	7524	4.01901	76.62
9	7758	4.13901	1163.17
9	8028	4.28901	77.01
9	8206	4.39401	1160.67
9	8229	4.40901	70.25
9	8324	4.46901	63.17
9	8375	4.49901	68.93
9	8602	4.64901	67.68
9	8673	4.69401	1173.87
9	8744	4.73901	1142.48
9	8913	4.84401	54.09
9	8964	4.87401	92.01
9	8986	4.88901	72.31
9	9033	4.91901	63.64
9	9118	4.96401	68.72
9	9176	4.99401	71.78

