file 7197107 1691868786                                         
version 3
run General-0-20230812-22:32:18-1184
attr configname General
attr datetime 20230812-22:32:18
attr datetimef 20230812-223218
attr experiment General
attr inifile omnetpp.ini
attr iterationvars ""
attr iterationvarsd ""
attr iterationvarsf ""
attr measurement ""
attr network fogsim1.net1
attr processid 1184
attr repetition 0
attr replication #0
attr resultdir results
attr runnumber 0
attr seedset 0
config network fogsim1.net1
config **.Server.hopCount.result-recording-modes +histogram
config **.Server.hopCount.result-recording-modes -vector

vector 0 net1.Server hopCount:vector ETV
attr interpolationmode none
attr recordingmode vector
attr source arrival
attr title "hop count"
0	721 922628 4 262139 0.148876275069 632.247308970915 32768 0 10 163903 1145611
0	923349 955864 262149 524284 632.260681366483 1264.39434071735 32768 0 10 163991 1147447
0	1879213 975056 524293 786426 1264.42704062322 1896.51906067279 32768 0 10 164217 1151673
0	2854269 980980 786430 1048572 1896.533412035968 2528.65326348503 32768 0 10 163620 1145314
0	3835249 1007784 1048574 1310714 2528.65864407105 3160.779902278622 32768 0 10 164443 1154009
0	4843033 1007760 1310721 1572858 3160.792074394028 3792.900186621812 32768 0 10 164333 1152489
0	5850793 1007782 1572870 1834998 3792.969064445297 4425.056606775617 32768 0 10 164372 1152760
0	6858575 338530 1835004 1923069 4425.06256407654 4637.44569339148 11009 0 10 55095 385973

