version 3
run general-0-20230818-11:53:36-5312
attr configname general
attr datetime 20230818-11:53:36
attr datetimef 20230818-115336
attr experiment general
attr inifile omnetpp.ini
attr iterationvars ""
attr iterationvarsd ""
attr iterationvarsf ""
attr measurement ""
attr network fogsim1.net1
attr processid 5312
attr repetition 0
attr replication #0
attr resultdir results
attr runnumber 0
attr seedset 0
config network fogsim1.net1
config sim-time-limit 5000ms
config simtime-resolution 10us

vector 0 net1.pc9 "Messages Delay" ETV
vector 1 net1.pc7 "Messages Delay" ETV
vector 2 net1.pc1 "Messages Delay" ETV
vector 3 net1.pc2 "Messages Delay" ETV
vector 4 net1.pc5 "Messages Delay" ETV
vector 5 net1.pc10 "Messages Delay" ETV
vector 6 net1.pc3 "Messages Delay" ETV
vector 7 net1.pc4 "Messages Delay" ETV
vector 8 net1.pc8 "Messages Delay" ETV
vector 9 net1.pc6 "Messages Delay" ETV
0	28	0.33471	120
0	162	0.65943	120
0	248	0.87874	139.88
0	309	1.03821	127.34
0	450	1.52029	120
0	557	1.79129	120
0	666	2.02247	120.39
0	849	2.49424	120
0	922	2.67653	120
0	996	2.84243	120
0	1110	3.17056	120
0	1182	3.28849	111.94
0	1320	3.68732	120.49
0	1404	3.92001	116.2
0	1517	4.15502	127.56
0	1588	4.34233	104.81
0	1704	4.62522	130.76
0	1709	4.64022	136.13
0	1826	4.95946	120
1	53	0.39472	120
1	139	0.56791	97.92
1	235	0.85679	120
1	260	0.89679	119.84
1	269	0.91179	119.83
1	403	1.38312	112.37
1	426	1.45114	116.84
1	537	1.7474	120
1	603	1.88682	162.19
1	640	1.95682	120
1	747	2.2549	110.09
1	897	2.61514	120
1	974	2.78569	105.51
1	1008	2.86243	126.74
1	1115	3.18056	125.52
1	1271	3.50206	133.38
1	1371	3.81983	112.69
1	1467	4.05546	120
1	1551	4.22335	104.96
1	1693	4.59788	131.72
1	1746	4.72863	120
2	58	0.40472	128.06
2	154	0.61827	120
2	247	0.87679	135.93
2	279	0.92679	137.8
2	378	1.32614	120
2	473	1.58878	120
2	645	1.96682	117.53
2	686	2.0749	110.56
2	822	2.42684	120
2	963	2.76381	120
2	1153	3.24349	120
2	1183	3.28849	105.36
2	1233	3.40023	114.79
2	1240	3.41523	118.07
2	1257	3.47066	120.43
2	1395	3.89001	120
2	1399	3.90501	120.11
2	1405	3.92001	110.71
2	1476	4.07546	121.17
2	1582	4.31733	120
2	1752	4.75056	120
3	64	0.41972	121.26
3	141	0.57291	122.17
3	295	0.97679	119.03
3	420	1.42614	132.72
3	550	1.7674	112.27
3	709	2.1449	120
3	804	2.38334	130.71
3	933	2.69381	112.88
3	944	2.72653	121.58
3	1058	3.04392	120
3	1172	3.27349	113.75
3	1212	3.35044	117.3
3	1282	3.54066	120
3	1301	3.60732	134.09
3	1448	4.01929	106.35
3	1486	4.09046	113.02
3	1616	4.44333	120
3	1734	4.69556	108.22
3	1756	4.76556	107.98
3	1806	4.92584	120
4	70	0.42472	121.35
4	246	0.87658	126.78
4	342	1.20244	126.79
4	480	1.60782	131.59
4	590	1.86225	122.71
4	629	1.9392	127.73
4	663	2.01747	126.91
4	728	2.20687	120
4	831	2.4478	139.6
4	859	2.51424	116.44
4	1019	2.89689	122.5
4	1230	3.39206	120
4	1334	3.72501	120
4	1431	3.98227	120
4	1631	4.47603	123.86
4	1812	4.93584	124.89
5	76	0.43472	121.06
5	89	0.46673	120
5	291	0.96821	139.47
5	305	1.02321	120
5	431	1.46529	126.39
5	456	1.53529	120.43
5	661	2.00747	120
5	772	2.31785	120
5	798	2.37334	121.35
5	932	2.69153	104.49
5	1035	2.94243	133.28
5	1171	3.27349	136.05
5	1294	3.58732	120
5	1479	4.07746	124.03
5	1555	4.22835	123.33
5	1585	4.32733	109.98
5	1637	4.48217	128.45
5	1660	4.52522	120
5	1837	4.97446	108.27
5	1845	4.98946	108.32
6	93	0.47291	113.89
6	157	0.62827	129.29
6	273	0.91679	131.63
6	319	1.09244	120
6	384	1.33614	124.26
6	520	1.70878	105.54
6	587	1.8592	120
6	718	2.1649	139.33
6	776	2.32785	119.32
6	794	2.36334	120
6	1004	2.85243	124.03
6	1040	2.95243	115.64
6	1161	3.26146	131.65
6	1297	3.59732	128.51
6	1475	4.07093	113.77
6	1507	4.14093	120
6	1681	4.57103	109.26
7	125	0.54898	126.07
7	174	0.72827	110.56
7	339	1.19244	111.56
7	481	1.60878	126.45
7	501	1.65975	120
7	597	1.8742	124.19
7	606	1.8892	124.89
7	678	2.04976	120
7	852	2.50037	118.82
7	878	2.57574	125.37
7	1014	2.88243	126.18
7	1045	2.96743	126.33
7	1073	3.09148	120
7	1204	3.33146	120
7	1368	3.81483	128.33
7	1493	4.10546	114.56
7	1571	4.27126	117.96
7	1674	4.55603	117.26
7	1687	4.58603	101.12
7	1758	4.77056	122.96
8	128	0.55291	128.52
8	196	0.78679	120.96
8	346	1.21244	127.75
8	423	1.43614	118.02
8	544	1.7624	122.52
8	714	2.1549	126.77
8	830	2.44684	110.24
8	873	2.56574	120
8	946	2.73018	123.3
8	1141	3.22113	120
8	1234	3.40206	128.62
8	1362	3.80483	120
8	1376	3.83483	117.42
8	1542	4.20835	120
8	1720	4.65863	110.75
9	135	0.56291	133.23
9	283	0.93679	110.21
9	391	1.34614	129.37
9	506	1.66975	111.93
9	619	1.9092	111.95
9	734	2.22187	113.89
9	928	2.68653	126.89
9	1042	2.96243	115.54
9	1124	3.19069	133.69
9	1164	3.26349	122.8
9	1247	3.43206	129.36
9	1340	3.74001	124
9	1548	4.21835	113.84
9	1566	4.26126	120
9	1670	4.54603	120
9	1770	4.83612	120
9	1832	4.96946	117.3

