version 3
run high-ttraffic-0-20230818-22:56:57-1228
attr configname high-ttraffic
attr datetime 20230818-22:56:57
attr datetimef 20230818-225657
attr experiment high-ttraffic
attr inifile omnetpp.ini
attr iterationvars ""
attr iterationvarsd ""
attr iterationvarsf ""
attr measurement ""
attr network fogsim1.net1
attr processid 1228
attr repetition 0
attr replication #0
attr resultdir results
attr runnumber 0
attr seedset 0
config network fogsim1.net1
config sim-time-limit 10s
config **.pc*.messagesGenerateLowerBound "100.0e-3  //10ms"
config **.pc*.messagesGenerateUpperBound "150.0e-3   //150ms"
config **.fogNode*.queueSize 5
config **.fogNode*.processingDelay 15.0e-3
config **.Server.processingDelay 10.0e-3
config **.Server.queueSize 100
config **.Server.wattsConsumePerSecond 400

vector 0 net1.pc9 "Messages Delay" ETV
vector 1 net1.pc7 "Messages Delay" ETV
vector 2 net1.pc1 "Messages Delay" ETV
vector 3 net1.pc5 "Messages Delay" ETV
vector 4 net1.pc3 "Messages Delay" ETV
vector 5 net1.pc10 "Messages Delay" ETV
vector 6 net1.pc2 "Messages Delay" ETV
vector 7 net1.pc8 "Messages Delay" ETV
vector 8 net1.pc4 "Messages Delay" ETV
vector 9 net1.pc6 "Messages Delay" ETV
0	58	0.241182867839	120.000128
0	167	0.381182931839	127.705486245
0	259	0.511182995839	129.303322057
0	364	0.653897546457	124.160114959
0	459	0.790904049545	127.222641364
0	529	0.885904113545	101.489608308
0	623	1.021164719151	129.989305251
0	701	1.121164783151	118.873299975
0	787	1.237703764762	113.560683953
0	871	1.351651065045	116.988856153
0	957	1.474185371988	117.593087426
0	1059	1.614654180102	125.406479437
0	1134	1.714654244102	119.887786479
0	1224	1.847892929026	120.000128
0	1330	1.99219623873	120.393764276
0	1453	2.16219630273	141.414491752
0	1518	2.24719636673	115.573449094
0	1626	2.40219643073	124.515632494
0	1720	2.528685857288	115.18869916
0	1812	2.647274820827	115.287257912
0	1901	2.77687691715	123.224951042
0	2001	2.919197350456	120.967662807
0	2101	3.063252510498	126.671637718
0	2205	3.211056692486	126.205008775
0	2307	3.346860419162	131.068307401
0	2415	3.486860483162	140.167600056
0	2481	3.581860547162	107.576851302
0	2581	3.7174686049	124.806815457
0	2651	3.831084304914	133.411171142
0	2756	3.965235981516	125.505841252
0	2853	4.100236045516	118.105493887
0	2930	4.203766768955	102.971679688
0	3018	4.32162661574	120.000128
0	3120	4.456662320476	138.065641934
0	3190	4.551662320476	109.893093125
0	3275	4.671662384476	128.301210929
0	3360	4.786662448476	96.590574841
0	3457	4.920324421821	114.655298409
0	3548	5.050324485821	116.176685816
0	3625	5.149147928005	112.098669877
0	3706	5.264147992005	118.118550003
0	3796	5.394148056005	121.289653569
0	3907	5.545575334939	127.396028062
0	3976	5.644903543737	110.490088229
0	4080	5.793217685369	118.901888344
0	4159	5.899159124802	113.371236326
0	4259	6.029159188802	119.783721535
0	4354	6.159159252802	139.039748708
0	4422	6.259159316802	113.170857151
0	4512	6.377345645375	121.113897646
0	4621	6.522531632351	128.95017274
0	4692	6.622531696351	126.669504938
0	4764	6.719358457858	118.481569216
0	4863	6.858989980943	108.896620607
0	4942	6.981013630742	120.000128
0	5045	7.120891216672	112.411772841
0	5170	7.294860652671	143.934031135
0	5242	7.393913717128	105.308615362
0	5341	7.531367018295	127.869825439
0	5435	7.661367082295	129.40935161
0	5523	7.777123842336	128.508853838
0	5598	7.877668190141	112.787686184
0	5711	8.037260282162	128.236778286
1	67	0.251182867839	123.93870897
1	156	0.371182931839	124.719687559
1	244	0.491182995839	118.275005482
1	327	0.601315165853	124.050710648
1	408	0.713897546457	112.952689251
1	504	0.84832130345	115.380395394
1	598	0.975904177545	129.735488918
1	681	1.091336225049	114.285761379
1	779	1.227703764762	120.000128
1	864	1.341651065045	125.401948977
1	942	1.450212504883	132.042117538
1	1029	1.570930934284	144.695071381
1	1114	1.689654180102	151.197037796
1	1162	1.749654244102	104.287954321
1	1269	1.910902163532	123.638628417
1	1362	2.032987709606	123.166213796
1	1446	2.15219630273	127.567796955
1	1540	2.279149307073	119.897195331
1	1634	2.41219643073	124.14699423
1	1738	2.548685857288	118.56711468
1	1813	2.648685921288	111.245090517
1	1900	2.773198367979	123.319880221
1	1965	2.870253900469	109.221331178
1	2085	3.038229879649	128.268764163
1	2179	3.174048011464	120.000128
1	2273	3.301056756486	114.809363196
1	2385	3.451860483162	132.604412953
1	2469	3.566860547162	119.106231375
1	2552	3.6824686049	113.143367389
1	2684	3.866450604374	170.274240998
1	2762	3.975235981516	129.117267997
1	2863	4.110236045516	120.870667355
1	2960	4.245236109516	133.193597343
1	3040	4.35162661574	138.998399491
1	3128	4.466662320476	127.982274076
1	3202	4.566662384476	116.786103941
1	3288	4.686662384476	128.551396116
1	3351	4.775922737012	104.448621952
1	3474	4.945324421821	125.625818476
1	3558	5.064147928005	121.843872753
1	3635	5.164147928005	119.022956023
1	3733	5.299147992005	126.898081177
1	3814	5.418902622498	116.300458622
1	3897	5.534903479737	125.440294817
1	3993	5.666352572184	127.473531393
1	4092	5.806352636184	123.206712179
1	4189	5.939159124802	119.47041067
1	4266	6.039159188802	109.096970734
1	4360	6.166283196394	126.898067396
1	4449	6.289440706218	141.310133609
1	4530	6.399159380802	143.786420066
1	4584	6.477345709375	120.450100351
1	4684	6.614358457858	120.000128
1	4772	6.729358457858	101.136962666
1	4884	6.883989980943	126.447977253
1	4998	7.055045597056	149.425085483
1	5080	7.165891216672	128.748308322
1	5151	7.274860652671	137.055901482
1	5261	7.413913717128	127.017496594
1	5357	7.551367018295	123.364911014
1	5453	7.681367082295	136.18470004
1	5516	7.767668126141	118.430674266
1	5603	7.882668190141	130.759379392
1	5675	7.985953117031	126.696974201
2	78	0.261182867839	133.742192724
2	164	0.376182931839	126.862896225
2	250	0.501182995839	127.864101655
2	342	0.623897546457	118.170058445
2	442	0.770904049545	125.131023908
2	585	0.956164655151	163.158183583
2	673	1.078270474372	184.324512903
2	708	1.131164783151	117.894372779
2	817	1.282703764762	124.31592548
2	891	1.381651065045	107.49180828
2	992	1.521786752943	99.680032715
2	1099	1.664654180102	118.812584618
2	1179	1.779654244102	123.983530783
2	1284	1.927892929026	138.539234154
2	1358	2.03219623873	105.879364791
2	1452	2.16219630273	129.943043077
2	1543	2.28219636673	121.683663795
2	1607	2.372223603258	107.555275991
2	1703	2.503685857288	132.427636921
2	1795	2.623685921288	124.786626713
2	1895	2.768198367979	132.539372382
2	1976	2.883198431979	115.593382374
2	2048	2.983198495979	109.783350876
2	2128	3.098229879649	112.324920794
2	2227	3.234048011464	123.076833455
2	2295	3.33124752129	119.31668325
2	2387	3.456860483162	125.756533821
2	2464	3.561860547162	113.054264599
2	2548	3.6774686049	117.599188202
2	2673	3.857651595521	157.472479233
2	2734	3.935235981516	127.584449995
2	2834	4.070236045516	131.806535622
2	2915	4.180236109516	138.348250111
2	2990	4.285236109516	125.073445126
2	3090	4.416662320476	120.000128
2	3166	4.516662320476	111.0256146
2	3276	4.672110285697	131.252859854
2	3378	4.815324357821	124.847112195
2	3465	4.935324421821	117.135054391
2	3589	5.104147928005	148.981020746
2	3655	5.191356649662	111.797857103
2	3714	5.274147992005	91.226717905
2	3837	5.447195401816	128.539281075
2	3914	5.554148120005	124.031033113
2	4003	5.679903543737	123.800897233
2	4079	5.791352636184	125.96819252
2	4183	5.929159124802	116.406151408
2	4287	6.073286570776	124.954406304
2	4373	6.189159252802	100.448075081
2	4488	6.349159380802	125.224489995
2	4572	6.457345709375	115.630181816
2	4651	6.56312589888	117.239249584
2	4738	6.684358457858	123.864432027
2	4824	6.799989921022	106.000068079
2	4919	6.938271360617	120.000128
2	5005	7.063966754072	134.110440179
2	5096	7.194860588671	121.289876283
2	5186	7.314860652671	123.928264696
2	5266	7.423913717128	132.778923875
2	5348	7.541367018295	140.739829352
2	5416	7.641367082295	120.433868978
2	5535	7.792668126141	133.032546009
2	5631	7.922668190141	115.38907645
3	87	0.271182867839	141.04469932
3	218	0.443278685543	168.551866936
3	268	0.521182995839	142.904374296
3	352	0.633897546457	113.987932772
3	470	0.800904049545	154.970561836
3	553	0.910904113545	127.039844814
3	648	1.051164719151	138.878753004
3	745	1.181164783151	134.787802112
3	830	1.301651065045	121.935748442
3	931	1.439185371988	129.07852205
3	1017	1.551786752943	109.926959152
3	1104	1.674654180102	124.845906987
3	1199	1.799654244102	102.367418417
3	1313	1.96719623873	121.086439784
3	1398	2.08219630273	134.127114336
3	1472	2.18219630273	118.227955671
3	1569	2.31719636673	109.972891472
3	1653	2.43719643073	114.044507725
3	1745	2.553685857288	121.37436611
3	1836	2.683685921288	117.483603145
3	1932	2.818198367979	123.188183041
3	2009	2.928229815649	110.863361784
3	2117	3.083229879649	125.173534801
3	2198	3.199048011464	108.008245908
3	2314	3.355900995509	134.541569109
3	2388	3.456860483162	114.062621832
3	2504	3.611860547162	139.519047684
3	2580	3.7174686049	138.063910278
3	2687	3.86798820979	153.38908589
3	2725	3.925235981516	108.758888392
3	2810	4.040236045516	117.567953272
3	2898	4.159860449522	116.833192394
3	3024	4.33162661574	139.823283007
3	3112	4.451310970315	150.926153706
3	3160	4.511662320476	110.351414161
3	3261	4.651662384476	119.938834781
3	3365	4.791662448476	124.983994901
3	3452	4.910324421821	107.139866932
3	3574	5.084147928005	133.744753689
3	3659	5.195208559202	123.084553441
3	3728	5.294147992005	120.790049805
3	3836	5.444148056005	125.956549291
3	3905	5.544148120005	124.924063054
3	4019	5.705034484358	144.258004524
3	4100	5.816352636184	121.582183605
3	4198	5.949159124802	110.373791999
3	4285	6.068933362239	122.463314262
3	4381	6.202675729494	126.86646425
3	4472	6.325923673066	114.271423827
3	4578	6.467345709375	131.290645906
3	4643	6.557345709375	110.418121185
3	4745	6.694358457858	133.085117395
3	4847	6.833989980943	131.064735746
3	4920	6.938636188645	106.688586918
3	5023	7.095891216672	120.000128
3	5112	7.210891280672	110.093180578
3	5218	7.363913717128	120.000128
3	5308	7.478913781128	116.570961846
3	5387	7.591367018295	117.808347813
3	5490	7.736367082295	117.480636912
3	5609	7.895953053031	130.755961014
3	5672	7.980953117031	111.779920675
4	98	0.281182867839	145.42339959
4	211	0.431182931839	147.240325387
4	308	0.573897482457	173.085067923
4	347	0.628897546457	121.067593052
4	426	0.750904049545	120.000128
4	506	0.850904113545	112.832527725
4	594	0.965904177545	118.515974498
4	682	1.092699904526	137.82795829
4	751	1.186164783151	113.317441812
4	861	1.336651065045	130.271830021
4	958	1.474185371988	139.296298166
4	1042	1.591202095904	106.548043802
4	1146	1.73011936999	128.564937013
4	1238	1.867892929026	125.288834503
4	1321	1.98219623873	114.110925618
4	1415	2.11219630273	129.970641645
4	1513	2.24219636673	115.946910987
4	1619	2.39219643073	120.110827158
4	1712	2.518685857288	114.241546787
4	1789	2.618685921288	105.994587758
4	1865	2.72558683464	98.471679488
4	1988	2.898198431979	126.281357362
4	2065	3.006996238962	120.207316762
4	2161	3.143258953033	127.406387038
4	2230	3.239048011464	111.668794312
4	2326	3.36624752129	115.361694718
4	2421	3.491860483162	97.052047034
4	2526	3.6474686049	120.000128
4	2609	3.760436388719	111.174665852
4	2717	3.915235981516	120.000128
4	2818	4.046034723948	125.383097918
4	2883	4.135236045516	107.585790328
4	3001	4.305284077229	134.314705741
4	3095	4.422650680672	114.181346798
4	3200	4.562489891049	114.335672052
4	3304	4.707336559399	120.000128
4	3396	4.838034857026	120.000128
4	3481	4.955324421821	117.378639426
4	3595	5.114147928005	127.690311365
4	3680	5.229147992005	107.873201078
4	3804	5.404148056005	148.90362629
4	3868	5.489148120005	111.10295912
4	3973	5.639903543737	116.637133989
4	4057	5.761352636184	124.409124772
4	4143	5.879159124802	118.045182512
4	4227	5.989159188802	117.379647767
4	4305	6.096470175977	105.982136015
4	4412	6.249159316802	121.317303295
4	4508	6.374159380802	118.04630191
4	4619	6.522345709375	127.966367861
4	4735	6.679358457858	136.882297169
4	4810	6.779358521858	136.420357663
4	4891	6.893989980943	147.854053458
4	4982	7.031013630742	154.553930147
4	5072	7.155891216672	139.471386844
4	5159	7.284860652671	129.7745221
4	5251	7.403913717128	123.958018179
4	5332	7.521367018295	120.000128
4	5444	7.671367082295	126.890616294
4	5520	7.772668126141	108.216714294
4	5633	7.927668190141	126.937059891
4	5710	8.035953117031	130.741835124
5	115	0.303477509594	172.299324774
5	143	0.341182867839	107.169034233
5	237	0.481182995839	107.582910562
5	316	0.579737495498	105.126490265
5	434	0.760904049545	137.362127167
5	520	0.870904113545	118.261201605
5	661	1.066164719151	174.810122886
5	714	1.136164783151	113.963486953
5	798	1.252703764762	125.538450987
5	880	1.366651065045	121.57814276
5	967	1.489185371988	112.398747045
5	1077	1.644654180102	138.775038549
5	1145	1.729654244102	90.037486436
5	1236	1.862892929026	118.421107802
5	1342	2.00719623873	113.886362966
5	1433	2.13219630273	120.914203517
5	1504	2.23219636673	117.706892466
5	1577	2.327680862236	87.028985326
5	1697	2.498685857288	115.91687642
5	1775	2.598685921288	114.911562893
5	1853	2.703652030108	106.377273281
5	1952	2.848229751649	121.352898499
5	2051	2.98658093678	117.383650324
5	2154	3.134851747711	121.599301213
5	2261	3.281056756486	120.000128
5	2358	3.416860483162	120.000128
5	2433	3.516860483162	114.856960002
5	2555	3.6874686049	137.016993441
5	2618	3.779261850867	115.79319298
5	2700	3.889730204264	108.64596335
5	2784	4.005235981516	116.027094034
5	2869	4.115236045516	97.572120818
5	2982	4.275236109516	121.469404561
5	3098	4.426662320476	125.689439484
5	3177	4.536662320476	127.140109846
5	3265	4.656662384476	117.307403206
5	3346	4.771662448476	120.41282646
5	3447	4.905324421821	116.532587458
5	3530	5.020324485821	120.595183065
5	3613	5.134147928005	130.153846896
5	3693	5.249147992005	126.266319033
5	3770	5.364148056005	117.336566712
5	3851	5.468179370877	110.523032534
5	3953	5.614903543737	119.328272798
5	4031	5.724315861025	128.737822568
5	4133	5.869159124802	125.941503433
5	4207	5.959375531267	100.473290026
5	4325	6.129159252802	133.734902534
5	4396	6.229159316802	127.858373661
5	4475	6.329159380802	108.055452472
5	4558	6.443581523611	116.235942236
5	4669	6.592531696351	120.000128
5	4753	6.704358457858	119.785450647
5	4853	6.843989980943	120.159328218
5	4953	6.996013630742	132.805870348
5	5032	7.105891216672	118.070044286
5	5119	7.220891280672	118.419094084
5	5193	7.324860652671	114.981423082
5	5287	7.453497256856	130.14405545
5	5378	7.581957794685	133.038644162
5	5474	7.711367082295	123.004293072
5	5572	7.845299052049	118.175273713
5	5665	7.975953117031	110.300301255
6	117	0.306182867839	176.54063702
6	151	0.361182931839	116.663970757
6	294	0.555727552012	170.600154607
6	375	0.663897546457	139.862311208
6	481	0.818357138353	155.295444321
6	532	0.890904113545	122.547039192
6	615	1.011164719151	120.000128
6	720	1.146164783151	124.395405877
6	810	1.267703764762	111.052827717
6	910	1.414185371988	120.000128
6	979	1.506786752943	107.499268614
6	1064	1.624654180102	112.702115707
6	1170	1.764654244102	119.885700107
6	1261	1.897892929026	121.982080368
6	1339	2.00219623873	123.499655426
6	1409	2.10219630273	117.489891197
6	1522	2.25219636673	121.578181554
6	1598	2.357223603258	121.908392782
6	1690	2.488685857288	120.000128
6	1784	2.608685921288	110.674545349
6	1883	2.753198367979	120.000128
6	1963	2.868198431979	106.387596925
6	2062	2.998198495979	101.413697051
6	2151	3.132445843534	120.000128
6	2247	3.264048011464	124.941983346
6	2333	3.381104013341	126.919244412
6	2416	3.486860483162	125.902010804
6	2476	3.576860547162	114.220820116
6	2600	3.750179180288	142.712123327
6	2691	3.872651595521	160.206084319
6	2774	3.988429573894	132.577759663
6	2854	4.100236045516	123.814395065
6	2953	4.235236109516	123.943020442
6	3032	4.346662256476	123.832050322
6	3135	4.476662320476	129.354667218
6	3235	4.616662384476	125.626083115
6	3326	4.740477309626	118.367087929
6	3430	4.885324421821	120.000128
6	3502	4.985324421821	108.877966827
6	3614	5.134147928005	123.674238302
6	3700	5.259147992005	117.791406343
6	3788	5.384148056005	120.106628367
6	3884	5.514148120005	116.952782189
6	3990	5.664903543737	135.418975936
6	4071	5.776352636184	125.595491515
6	4150	5.889159124802	127.626596245
6	4249	6.019159188802	109.754117446
6	4353	6.159159252802	135.872746026
6	4436	6.273934954807	144.045042546
6	4547	6.42654121096	154.629871931
6	4590	6.487345709375	110.804562415
6	4718	6.654358457858	141.232622978
6	4780	6.743989916943	103.081620201
6	4868	6.868271296617	118.281439595
6	4957	7.001013630742	134.115825918
6	5061	7.145891216672	131.9245266
6	5143	7.264860652671	120.000128
6	5278	7.438913717128	144.801578435
6	5370	7.571367018295	157.198262528
6	5460	7.691367082295	128.552352019
6	5546	7.807668126141	129.76185215
6	5618	7.907668190141	129.064496241
6	5697	8.015953117031	124.818287143
7	124	0.31146330828	169.100721417
7	203	0.422908054357	161.373391428
7	290	0.551182995839	143.368501249
7	388	0.683897546457	132.582444604
7	491	0.83332130345	176.092480409
7	560	0.920904113545	137.582874095
7	630	1.02705052767	132.901770385
7	728	1.157703700762	116.367539713
7	803	1.257703764762	113.356330388
7	886	1.371651065045	120.857315754
7	987	1.516786752943	116.57431206
7	1076	1.644654180102	123.723309818
7	1148	1.734654244102	97.86328658
7	1231	1.857892929026	120.42338941
7	1307	1.95982155981	98.919460278
7	1424	2.12219630273	139.208657124
7	1489	2.209252175742	105.551380717
7	1586	2.3380495005	108.900257427
7	1664	2.45219643073	122.57935257
7	1762	2.578685857288	129.177741546
7	1849	2.699878551758	121.889515797
7	1923	2.803198367979	105.404418106
7	2017	2.938229815649	117.97597918
7	2094	3.053229879649	112.385036088
7	2191	3.189048011464	113.576588327
7	2282	3.316056756486	119.392581152
7	2373	3.436860483162	125.692427331
7	2456	3.551860547162	136.073797
7	2541	3.6674686049	119.07669102
7	2635	3.81298820979	120.000128
7	2742	3.945235981516	128.785441142
7	2828	4.060236045516	135.443129245
7	2901	4.162042576173	135.588540583
7	2983	4.275236109516	146.252668286
7	3063	4.38162661574	134.644271556
7	3148	4.496662320476	146.96307699
7	3213	4.581662384476	114.695557062
7	3309	4.716662384476	124.694242372
7	3405	4.848034857026	122.112184014
7	3486	4.960324421821	123.78222371
7	3582	5.094147928005	133.082789801
7	3658	5.194147992005	117.49305996
7	3760	5.352602227876	133.216616678
7	3863	5.484148120005	115.245561507
7	3947	5.604903543737	120.000128
7	4038	5.733145988005	116.793479821
7	4134	5.869688778132	130.52978133
7	4213	5.969159124802	117.303045731
7	4301	6.089385192998	116.294840668
7	4404	6.239159316802	122.876184408
7	4504	6.369159380802	129.718738584
7	4595	6.492345709375	116.801034119
7	4709	6.644358457858	141.204159029
7	4760	6.714358457858	108.0522444
7	4839	6.823989980943	103.597262273
7	4949	6.991013630742	121.746155308
7	5041	7.115891216672	110.845683616
7	5165	7.289860652671	142.587615725
7	5234	7.383913717128	112.722164855
7	5307	7.478002171281	99.965605304
7	5426	7.651367082295	124.295532642
7	5503	7.752668126141	107.633005631
7	5588	7.867668190141	116.008687979
7	5688	8.000953117031	134.064513355
8	133	0.326182867839	183.969580634
8	187	0.401182931839	145.336829908
8	283	0.543897482457	168.412140868
8	336	0.613897546457	120.000128
8	449	0.780904049545	147.048702896
8	518	0.865904113545	105.180105484
8	631	1.031164719151	133.594802194
8	739	1.171164783151	128.464942625
8	850	1.321651065045	130.460771089
8	937	1.444185371988	136.742716654
8	1000	1.534654116102	116.767622839
8	1087	1.651554496977	110.352465073
8	1191	1.792604158523	112.484852533
8	1250	1.882892929026	97.96870298
8	1360	2.032225725085	117.059223138
8	1464	2.176249519743	137.038340984
8	1527	2.25719636673	89.655115548
8	1667	2.454444374501	140.438313427
8	1750	2.563685857288	136.443287998
8	1802	2.633685921288	106.208577894
8	1915	2.793198367979	117.611597339
8	2025	2.948229815649	125.005594547
8	2103	3.065852629995	108.856455033
8	2218	3.224048011464	130.789122431
8	2309	3.35124752129	134.245256179
8	2406	3.476860483162	122.399726248
8	2498	3.601860547162	118.683527457
8	2564	3.699261786867	111.221770832
8	2680	3.86298820979	152.551885071
8	2759	3.97065169003	114.982978098
8	2874	4.120236045516	124.201385568
8	2967	4.255236109516	138.197681184
8	3071	4.392650680672	137.366667443
8	3149	4.498154282997	132.870443497
8	3249	4.637336495399	124.84666835
8	3316	4.722336559399	107.328229413
8	3409	4.853034857026	111.244887176
8	3493	4.970324421821	118.042264268
8	3566	5.074147928005	110.495038993
8	3672	5.214147992005	106.444875061
8	3780	5.374148056005	129.253211944
8	3857	5.474148120005	105.778416568
8	3960	5.624903543737	112.454570098
8	4047	5.746352636184	118.31065152
8	4167	5.909159124802	146.742726499
8	4240	6.004159188802	115.832754932
8	4345	6.149159252802	128.519597181
8	4441	6.279159316802	144.674973573
8	4496	6.359159380802	115.511045594
8	4607	6.507345709375	116.67577659
8	4724	6.664358457858	144.464721456
8	4830	6.809358521858	142.98831955
8	4899	6.908989980943	117.00010536
8	4991	7.046013630742	131.265314299
8	5084	7.170891216672	120.715492786
8	5197	7.329955762949	131.067105662
8	5285	7.451366954295	120.504671184
8	5365	7.561367018295	124.471885359
8	5467	7.701367082295	116.430216633
8	5560	7.825299052049	120.000128
8	5644	7.942668190141	136.797893336
9	138	0.331780600575	188.883319583
9	207	0.428278685543	161.498148968
9	307	0.569909677685	161.325202669
9	384	0.673897546457	121.808708888
9	490	0.830904049545	142.783579397
9	565	0.925904113545	114.10362226
9	660	1.066164719151	138.15717766
9	758	1.196164783151	145.659742182
9	843	1.316651065045	133.489022466
9	917	1.424185371988	122.837790738
9	1001	1.536786752943	102.799655746
9	1113	1.689654180102	124.491577605
9	1185	1.784654244102	101.055383319
9	1301	1.95219623873	120.000128
9	1387	2.06719630273	134.000808383
9	1481	2.19719630273	129.56774907
9	1557	2.30219636673	121.298338515
9	1641	2.42219643073	127.412474314
9	1732	2.538685857288	129.431596323
9	1828	2.668685921288	117.984658907
9	1922	2.803198367979	114.691771026
9	2021	2.943229815649	120.720440052
9	2105	3.068229879649	125.89521711
9	2185	3.184048011464	112.290094755
9	2267	3.291056756486	99.555375169
9	2366	3.426860483162	120.959551653
9	2438	3.522341563478	101.526515578
9	2533	3.6574686049	120.603694813
9	2645	3.82298820979	136.921187932
9	2739	3.940235981516	118.456894739
9	2846	4.093027321128	132.295683442
9	2945	4.225236109516	115.375723994
9	3049	4.36162661574	108.976063068
9	3147	4.496662320476	127.062511981
9	3248	4.636662384476	120.658511348
9	3334	4.747336559399	102.471257008
9	3439	4.895324421821	120.963620543
9	3515	5.000403238316	116.732786767
9	3596	5.114147928005	117.759652318
9	3718	5.279147992005	133.939496803
9	3812	5.414148056005	135.085481987
9	3876	5.504148120005	111.919427085
9	3967	5.634903543737	123.501656256
9	4063	5.766352636184	111.318215826
9	4175	5.919159124802	124.687733374
9	4233	5.996470111977	100.715584876
9	4321	6.125809329244	106.876031005
9	4460	6.310923673066	158.248007572
9	4519	6.386055127469	125.131518403
9	4624	6.527345709375	128.988919083
9	4700	6.634358457858	125.543816166
9	4777	6.734358457858	124.722334602
9	4858	6.848989980943	104.179118419
9	4975	7.025891152672	137.255028027
9	5037	7.110891216672	97.947114107
9	5129	7.24266134154	120.000128
9	5230	7.378913717128	117.231171131
9	5318	7.493913781128	111.706628056
9	5395	7.606367018295	119.267640917
9	5481	7.721367082295	113.699084154
9	5565	7.835299052049	116.01934683
9	5659	7.965953117031	120.000128
0	5813	8.170953181031	118.902118581
1	5755	8.100953181031	129.428677567
2	5733	8.069003333215	128.121829377
3	5789	8.140953181031	134.173258775
4	5805	8.160953181031	114.261787013
5	5774	8.120953181031	133.692962869
6	5799	8.150953181031	131.949911816
7	5794	8.145953181031	158.037604266
8	5722	8.050953117031	111.212229003
9	5767	8.110953181031	124.478987249

