version 3
run high-ttraffic-0-20230828-18:11:35-11932
attr configname high-ttraffic
attr datetime 20230828-18:11:35
attr datetimef 20230828-181135
attr experiment high-ttraffic
attr inifile omnetpp.ini
attr iterationvars ""
attr iterationvarsd ""
attr iterationvarsf ""
attr measurement ""
attr network fogsim6.net1
attr processid 11932
attr repetition 0
attr replication #0
attr resultdir results
attr runnumber 0
attr seedset 0
config sim-time-limit 100s
config **.pc*.messagesGenerateLowerBound "100.0e-3  //10ms"
config **.pc*.messagesGenerateUpperBound "150.0e-3   //150ms"
config **.fogNode*.queueSize "5// set queue size to 5 for example"
config **.fogNode*.processingDelay "10.0e-3  // 10 ms delay for example"
config **.Server.processingDelay 20.0e-3
config **.Server.queueSize 50
config **.Server.wattsConsumePerSecond 40
config network fogsim6.net1
config sim-time-limit 5s

vector 0 net1.pc9 "Messages Delay" ETV
vector 1 net1.pc7 "Messages Delay" ETV
vector 2 net1.pc1 "Messages Delay" ETV
vector 3 net1.pc5 "Messages Delay" ETV
vector 4 net1.pc10 "Messages Delay" ETV
vector 5 net1.pc3 "Messages Delay" ETV
vector 6 net1.pc8 "Messages Delay" ETV
vector 7 net1.pc2 "Messages Delay" ETV
vector 8 net1.pc6 "Messages Delay" ETV
vector 9 net1.pc4 "Messages Delay" ETV
0	54	0.241182867839	120.000128
0	204	0.481182867839	227.705422245
0	370	0.761182867839	379.303194057
0	507	0.981182867839	451.445436341
0	618	1.174143144809	510.461736628
0	741	1.381182867839	596.768362602
0	812	1.501182867839	610.007453939
0	920	1.679616821666	677.32533849
0	1040	1.881182867839	757.03978703
0	1165	2.081182867839	846.520658947
0	1278	2.28065194091	924.059656348
0	1391	2.453497222128	964.249521463
0	1512	2.661182867839	1066.416410216
0	1595	2.801182867839	1073.290066813
0	1786	3.121182867839	1100.401056861
0	1951	3.386692947106	1109.01214887
0	2256	3.879730204264	1081.500516615
0	2341	4.022130615629	1085.549742849
0	2442	4.181182867839	1096.331184128
0	3039	5.162881736972	1062.086647705
0	3120	5.301182867839	1099.556380099
0	3262	5.535575334939	1093.806107588
0	3320	5.635578102457	1092.21692891
0	3548	6.001182867839	1067.035067834
0	3615	6.111182867839	1074.133609711
0	3781	6.381182867839	1108.324465403
0	4020	6.763830716725	1089.5149197
0	4086	6.881182867839	1095.394979363
0	4153	7.001182867839	1091.807400572
0	4217	7.101182867839	1081.063363745
0	4299	7.249879293589	1103.890833938
0	4457	7.501182867839	1107.601408228
0	4659	7.831182867839	1081.089507503
0	4727	7.949023567876	1088.010065134
0	4816	8.09205112645	1083.571682619
0	5156	8.641182867839	1109.225137154
0	5212	8.742328463172	1093.713474674
0	5458	9.141182867839	1089.131805389
0	5515	9.241182867839	1074.051873695
0	5694	9.534511574	1085.814063837
0	5768	9.661182867839	1098.844262829
0	5853	9.801182867839	1098.854468667
0	5919	9.91136281215	1100.328815537
0	6001	10.041182867839	1103.339996253
0	6086	10.181182867839	1095.519709905
0	6173	10.321182867839	1095.500786965
0	6261	10.461182867839	1106.490931578
0	6333	10.581182867839	1086.671357839
0	6401	10.701182867839	1101.797923513
0	6614	11.061182867839	1093.831552273
0	6680	11.161182867839	1073.768577421
0	6753	11.281182867839	1089.167198251
0	6808	11.3742445765	1080.575177463
0	7298	12.181182867839	1097.122001603
0	7383	12.321182867839	1090.257783408
0	7558	12.601182867839	1074.820870481
0	7626	12.721182867839	1078.600627415
0	7699	12.841182867839	1054.302514138
0	7782	12.981182867839	1066.876559344
0	7854	13.101182867839	1080.283957573
0	7946	13.241182867839	1097.908164121
0	7984	13.311182867839	1064.286441806
0	8216	13.691182867839	1081.521444619
0	8283	13.801182867839	1083.092624361
0	8355	13.921182867839	1097.861230091
0	8592	14.321182867839	1096.915092724
0	8667	14.441182867839	1099.784543612
0	8739	14.561182867839	1090.927531274
0	8814	14.681182867839	1078.567698679
0	8988	14.961182867839	1096.620726941
0	9044	15.052341732624	1046.438380836
0	9127	15.191182867839	1065.058269191
0	9206	15.321182867839	1089.01230114
0	9515	15.821182867839	1083.609464121
0	9593	15.951182867839	1068.706346074
0	9673	16.091182867839	1078.841199215
0	9921	16.493607053936	1086.430379833
0	10084	16.755548684146	1087.580979121
0	10148	16.864618541715	1092.547949407
0	10206	16.971182867839	1086.080842195
0	10498	17.461182867839	1087.551352436
0	10797	17.941182867839	1100.459171055
0	11041	18.341182867839	1096.706371618
0	11133	18.490609245265	1119.386906309
0	11921	19.791182867839	1047.027979515
0	11998	19.921182867839	1056.263982317
0	12098	20.081182867839	1097.668044759
0	12240	20.321182867839	1099.22958404
0	12465	20.681182867839	1087.749218069
0	12538	20.801182867839	1099.930050777
0	12784	21.20434240823	1092.211654521
0	12855	21.330124325627	1095.214643929
0	12925	21.441182867839	1075.189914186
0	12996	21.551182867839	1076.038249495
0	13137	21.781182867839	1095.241040645
0	13221	21.921182867839	1098.878545034
0	13303	22.061182867839	1093.135390463
0	13381	22.193667087304	1084.379724501
0	13455	22.321182867839	1091.409194807
0	13505	22.396542140579	1066.510819357
0	13594	22.551182867839	1085.628758902
0	13664	22.671182867839	1093.661908724
0	13734	22.791182867839	1065.502043935
0	13813	22.921182867839	1086.226149323
0	13881	23.038680131476	1081.379565036
0	13974	23.201182867839	1107.5049516
0	14057	23.341182867839	1108.961313828
0	14120	23.441182867839	1084.64079126
0	14204	23.581182867839	1081.301364421
0	14287	23.721182867839	1103.891767305
0	14359	23.841182867839	1107.168080383
0	14410	23.921182867839	1084.324217262
0	14490	24.061182867839	1095.998911977
0	14566	24.181182867839	1083.132966215
0	14727	24.441182867839	1099.64367643
0	15266	25.321182867839	1097.931480524
0	15386	25.521182867839	1071.367609198
0	15557	25.801182867839	1086.812115002
0	15640	25.94955616896	1096.624142978
0	15967	26.461182867839	1086.914098121
0	16049	26.601182867839	1077.012823902
0	16226	26.901182867839	1095.240946831
0	16280	26.991182867839	1072.680348756
0	16356	27.121182867839	1096.31564772
0	16417	27.217100396434	1075.927291759
0	16507	27.381182867839	1097.347464182
0	16566	27.461182867839	1064.541774392
0	16623	27.561182867839	1058.408675282
0	16712	27.716301374038	1079.256434673
0	16881	27.991182867839	1076.780990795
0	17041	28.261182867839	1094.082535405
0	17102	28.361182867839	1081.501197626
0	17176	28.481182867839	1096.501063674
0	17268	28.641182867839	1108.723536196
0	17345	28.761182867839	1084.881557801
0	17597	29.161182867839	1099.074013516
0	17648	29.251182867839	1085.329255595
0	17730	29.387234535279	1092.221281548
0	17811	29.517320213061	1090.387453964
0	17889	29.657182909433	1090.662079233
0	17955	29.761182867839	1074.810745784
0	18107	30.021182867839	1086.969434654
0	18240	30.241182867839	1098.773744158
0	18307	30.341182867839	1080.61254629
0	18394	30.481702240022	1090.284892915
0	18463	30.601182867839	1080.005649611
0	18559	30.763577551377	1097.178345352
0	18708	31.001182867839	1080.358429981
0	18781	31.113962878784	1092.165317451
0	18938	31.381182867839	1090.519883241
0	19002	31.481182867839	1087.969517558
0	19055	31.571182867839	1070.550570916
0	19328	32.041182867839	1091.125878835
0	19387	32.131182867839	1067.220053055
0	19477	32.281182867839	1100.328009566
0	19536	32.381182867839	1097.454478093
0	19682	32.621182867839	1086.672881432
0	19762	32.761182867839	1097.992394292
0	19822	32.860927292581	1085.407966437
0	20218	33.511328617849	1069.565351975
0	20388	33.781182867839	1094.635103972
0	20698	34.301182867839	1095.562472167
0	20859	34.561182867839	1089.85431399
0	21086	34.939557782584	1095.567638998
0	21398	35.461182867839	1105.676895042
0	21475	35.581182867839	1087.862533754
0	21551	35.701182867839	1099.365784423
0	21635	35.841182867839	1104.466093396
0	21758	36.041182867839	1069.247868046
0	22018	36.471182867839	1086.777247338
0	22208	36.796789246909	1078.572335707
0	22286	36.921182867839	1074.474245894
0	22370	37.061182867839	1089.803897857
0	22611	37.461182867839	1100.523895967
0	22682	37.571182867839	1068.120747398
0	22758	37.701182867839	1088.288433217
0	22828	37.821182867839	1074.39368493
0	23081	38.246948254717	1050.277909023
0	23198	38.441182867839	1095.633371378
0	23274	38.581182867839	1086.469627944
0	23340	38.691182867839	1074.129961996
0	23482	38.931182867839	1083.042169122
0	23543	39.031182867839	1073.207176807
0	23618	39.161182867839	1060.220949328
0	23687	39.271182867839	1064.234677122
0	23779	39.421182867839	1092.815751514
0	23842	39.521182867839	1089.124437621
0	23900	39.628168573642	1076.993053539
0	23980	39.761182867839	1074.918059468
0	24136	40.011182867839	1061.067270219
0	24228	40.161182867839	1093.55370975
0	24389	40.421182867839	1080.877737795
0	24462	40.546899102203	1090.146283962
0	24533	40.661182867839	1073.014358197
0	24614	40.801182867839	1097.244998099
0	24671	40.896671995348	1077.666097055
0	24747	41.021182867839	1085.004279123
0	25081	41.571182867839	1066.033383739
0	25180	41.741182867839	1101.19201701
0	25260	41.881182867839	1091.73759532
0	25498	42.281182867839	1077.684469594
0	25671	42.551182867839	1080.488164568
0	25733	42.663790100864	1054.938386257
0	25831	42.821182867839	1090.890664422
0	25913	42.961182867839	1087.889335827
0	25979	43.071182867839	1051.588010544
0	26060	43.201182867839	1060.025118194
0	26136	43.321182867839	1067.817266577
0	26221	43.461182867839	1081.975614604
0	26293	43.581182867839	1093.816529287
0	26369	43.701182867839	1077.392830975
0	26519	43.941182867839	1060.543225583
0	26681	44.201182867839	1072.924872228
0	26778	44.361182867839	1088.017131224
0	26918	44.581182867839	1097.826856541
0	26967	44.669292094826	1081.913657859
0	27106	44.901182867839	1078.491251714
0	27161	44.993606632279	1070.170015673
0	27330	45.281182867839	1089.568735405
0	27400	45.401182867839	1096.740361764
0	27550	45.661182867839	1102.254914036
0	27622	45.781182867839	1073.021494087
0	27939	46.304215251864	1102.446053455
0	28022	46.438045963077	1125.356095588
0	28233	46.780028652222	1094.324368012
0	28595	47.371182867839	1087.658357643
0	28655	47.471182867839	1082.054763566
0	28724	47.587852168834	1094.061364855
0	28868	47.821182867839	1091.154279617
0	28952	47.961182867839	1096.839234334
0	29026	48.081182867839	1100.007227635
0	29195	48.358049272088	1091.628601313
0	29368	48.641182867839	1093.330763005
0	29444	48.761182867839	1098.464507467
0	29527	48.901182867839	1092.318792659
0	29614	49.041182867839	1093.300292668
0	29758	49.281182867839	1098.657818024
0	29919	49.54867145174	1111.539556416
0	30047	49.767623712763	1099.609386745
0	30274	50.141182867839	1099.10374687
0	30340	50.241182867839	1056.681821162
0	30427	50.381182867839	1089.107521032
0	30495	50.481182867839	1085.326987309
0	30556	50.577123869339	1068.452481599
0	30721	50.861182867839	1095.694337178
0	30788	50.961182867839	1088.855840101
0	30942	51.221182867839	1103.045240162
0	31160	51.581182867839	1081.819680953
0	31329	51.861182867839	1099.363158048
0	31485	52.120793280289	1096.276623038
0	31798	52.641182867839	1070.966226101
0	31967	52.913441565255	1075.516359491
0	32043	53.047520305557	1101.354820552
0	32100	53.141182867839	1060.38965155
0	32270	53.421182867839	1082.367895498
0	32370	53.582477789505	1096.24797941
0	32460	53.721182867839	1093.244244951
0	32519	53.821182867839	1075.510357449
0	32599	53.953123978635	1089.68247738
0	32693	54.102046960923	1100.866264913
0	32775	54.241182867839	1107.64590578
0	32858	54.387812053428	1104.819026139
0	32937	54.521182867839	1098.797368282
0	33008	54.642532685178	1100.054959673
0	33166	54.901182867839	1109.468885751
0	33224	54.991182867839	1078.058953204
0	33411	55.301182867839	1099.684172399
0	33496	55.443437548346	1095.625558918
0	33590	55.601182867839	1109.99919688
0	33662	55.721182867839	1087.022365573
0	33734	55.841182867839	1087.622060191
0	33820	56.001182867839	1099.826444788
0	33972	56.241182867839	1087.755157328
0	34056	56.381182867839	1108.463758991
0	34203	56.621182867839	1106.028028637
0	34386	56.926751656643	1049.284827126
0	34678	57.421968458684	1105.453130379
0	34750	57.534842874143	1086.518068598
0	34909	57.801182867839	1097.937686866
0	34979	57.921182867839	1093.75637168
0	35064	58.061182867839	1104.871048801
0	35211	58.301324537613	1092.154007983
0	35350	58.521182867839	1081.973077265
0	35449	58.681182867839	1092.96512525
0	35518	58.801182867839	1100.173161455
0	35606	58.933477051822	1087.595678841
0	35695	59.081182867839	1099.982955019
0	35848	59.341182867839	1089.858394226
0	35926	59.461182867839	1084.778820547
0	36006	59.601182867839	1107.921364667
0	36146	59.821182867839	1076.516464191
0	36214	59.934618137396	1076.98304302
0	36306	60.081182867839	1099.492675151
0	36381	60.212051763158	1081.622207403
0	36469	60.361182867839	1094.284038757
0	36543	60.481182867839	1096.612853747
0	36614	60.581182867839	1078.622365514
0	37014	61.25713868918	1095.086990022
0	37103	61.401182867839	1108.673105549
0	37164	61.501182867839	1090.656405545
0	37236	61.621182867839	1097.544839724
0	37571	62.161182867839	1060.665719676
0	37808	62.561182867839	1085.38668229
0	37875	62.673454312135	1073.416460812
0	38029	62.931381365006	1113.969076171
0	38110	63.07034850525	1103.88290523
0	38343	63.448299281966	1082.535131164
0	38427	63.597969542855	1092.167366674
0	38501	63.722267061627	1098.812813492
0	38562	63.821182867839	1060.91298502
0	38728	64.101182867839	1080.834426589
0	39206	64.901182867839	1103.59452143
0	39336	65.121182867839	1088.121174138
0	39465	65.321685396	1071.667443349
0	39508	65.401182867839	1046.682791327
0	39598	65.541182867839	1058.417571226
0	39701	65.699958732333	1067.773118655
0	39957	66.141182867839	1105.461541452
0	40180	66.501182867839	1096.442835809
0	40268	66.646378060663	1099.376128835
0	40563	67.141182867839	1094.57785667
0	40645	67.281182867839	1090.506833329
0	40708	67.381182867839	1086.327906375
0	40778	67.501182867839	1093.360831014
0	40853	67.621182867839	1066.828058509
0	40940	67.767167178651	1100.119616945
0	41002	67.861182867839	1073.551835164
0	41081	68.001182867839	1074.2985164
0	41257	68.281182867839	1075.529918752
0	41371	68.461182867839	1109.62969834
0	41445	68.591158939013	1097.482759097
0	41515	68.701182867839	1090.627618898
0	41578	68.801182867839	1074.015753188
0	41657	68.941182867839	1099.446693056
0	41741	69.081182867839	1102.281078466
0	41799	69.181182867839	1084.496800616
0	41896	69.336510120219	1108.126258248
0	41964	69.452805450086	1111.136161087
0	42038	69.565342541637	1093.21928707
0	42205	69.835345362046	1093.241402939
0	42404	70.161182867839	1094.796388759
0	42440	70.221182867839	1048.719477039
0	42533	70.371182867839	1082.959944746
0	42592	70.471633135029	1068.827748943
0	42673	70.606804656135	1091.462178498
0	42743	70.721182867839	1090.882065313
0	42813	70.841182867839	1092.424005766
0	42898	70.981182867839	1099.970525811
0	43070	71.261182867839	1109.327548603
0	43144	71.381182867839	1093.059126083
0	43229	71.521182867839	1089.54979681
0	43401	71.80123046752	1093.512236621
0	43486	71.9360333654	1089.641209311
0	43534	72.024292719144	1060.08301785
0	43722	72.321182867839	1097.977758749
0	43806	72.461182867839	1099.408706173
0	44116	72.982260189311	1086.226887911
0	44189	73.101182867839	1092.952677082
0	44245	73.201182867839	1087.115581926
0	44321	73.321182867839	1102.676717044
0	44402	73.4557779304	1088.792660848
0	44550	73.701182867839	1098.761074861
0	44634	73.841182867839	1099.672023145
0	44692	73.937306030448	1063.193726721
0	44771	74.071182867839	1084.680741226
0	44855	74.214858385329	1085.486855514
0	45091	74.601182867839	1086.678296128
0	45178	74.741182867839	1093.663750399
0	45414	75.121182867839	1106.339123336
0	45556	75.361182867839	1107.713784802
0	45856	75.841182867839	1088.2594716
0	45936	75.972761254425	1074.77857115
0	46006	76.091182867839	1078.835540645
0	46073	76.201182867839	1072.654855401
0	46158	76.341182867839	1107.830095951
0	46297	76.581182867839	1086.275257571
0	46457	76.84516661548	1094.721491138
0	46519	76.941182867839	1081.833484695
0	46956	77.681182867839	1091.523358697
0	47024	77.801182867839	1104.761194087
0	47159	78.021182867839	1095.590860423
0	47235	78.141182867839	1069.736261569
0	47331	78.301182867839	1083.231057703
0	47502	78.581182867839	1098.932156287
0	47578	78.701182867839	1079.481444099
0	47661	78.841182867839	1079.619549549
0	47756	78.995168309278	1103.061354632
0	47825	79.107347322806	1103.247469134
0	47879	79.201182867839	1080.738314275
0	48029	79.441182867839	1095.862250725
0	48444	80.123203731168	1099.306751897
0	48530	80.261182867839	1106.214504235
0	48600	80.361182867839	1091.197445139
0	48672	80.481182867839	1091.53801379
0	48895	80.841182867839	1083.053285426
0	48979	80.981182867839	1096.326630043
0	49062	81.121182867839	1089.894505895
0	49293	81.501182867839	1092.514028061
0	49450	81.761182867839	1094.479283342
0	49676	82.121182867839	1087.268448892
0	49759	82.261182867839	1101.183740318
0	49961	82.592555029193	1073.876097758
0	50117	82.861182867839	1094.717894287
0	50284	83.141182867839	1096.128803244
0	50524	83.541182867839	1079.288435108
0	50669	83.781182867839	1099.69293243
0	50730	83.881182867839	1089.251601086
0	50807	84.001182867839	1093.21357325
0	50955	84.241182867839	1081.807485652
0	51021	84.361182867839	1070.023622367
0	51117	84.521182867839	1089.134084497
0	51178	84.621182867839	1075.845412485
0	51263	84.764565921027	1102.460879278
0	51348	84.901182867839	1102.989195975
0	51651	85.401182867839	1098.147852137
0	51711	85.501182867839	1096.119446378
0	51913	85.821182867839	1096.617010812
0	52038	86.041182867839	1088.671494309
0	52113	86.15812492623	1069.774607315
0	52301	86.461182867839	1092.175792196
0	52390	86.601182867839	1092.000567344
0	52462	86.721182867839	1100.036398421
0	52687	87.09274618233	1075.143688117
0	52823	87.321182867839	1069.650275524
0	52915	87.473257929917	1098.681181156
0	53258	88.041182867839	1095.898054285
0	53312	88.141182867839	1085.990079493
0	53483	88.417510671506	1093.19886056
0	53656	88.701182867839	1097.426155282
0	53916	89.121182867839	1097.625811417
0	53979	89.221182867839	1087.763011824
0	54038	89.313238667841	1073.823633452
0	54123	89.461182867839	1093.672260333
0	54185	89.561182867839	1089.331829274
0	54270	89.701182867839	1094.376370524
0	54390	89.901182867839	1074.458828305
0	54472	90.035186943277	1079.264935445
0	54570	90.201182867839	1106.450284614
0	54615	90.281182867839	1077.210405783
0	54774	90.541182867839	1091.394506711
0	54845	90.651182867839	1084.479107165
0	54922	90.781182867839	1078.036655136
0	54998	90.901182867839	1090.334957272
0	55081	91.041182867839	1096.092096776
0	55154	91.161182867839	1088.383867877
0	55239	91.301182867839	1095.09673467
0	55312	91.417138140922	1090.523072531
0	55463	91.665519145428	1091.981829576
0	55546	91.801182867839	1092.901599713
0	55630	91.941182867839	1092.047260796
0	55696	92.041182867839	1080.973234087
0	55779	92.181182867839	1098.511519771
0	55940	92.441182867839	1109.894799105
0	56075	92.661182867839	1062.008023874
0	56160	92.801182867839	1075.212857434
0	56566	93.450979249851	1103.552355948
0	56784	93.801182867839	1101.855387089
0	57001	94.161182867839	1103.562348063
0	57075	94.281182867839	1107.127475831
0	57365	94.761182867839	1088.232086651
0	57441	94.881182867839	1099.259814118
0	57502	94.981182867839	1069.508582981
0	57588	95.121182867839	1089.749391664
0	57661	95.241182867839	1061.879665103
0	57724	95.341182867839	1044.553507121
0	57795	95.470490279801	1063.984668654
0	57866	95.579153527362	1045.853516556
0	57965	95.741182867839	1081.130128937
0	58039	95.861182867839	1074.142578192
0	58111	95.981182867839	1093.434141634
0	58206	96.141182867839	1107.881716245
0	58278	96.261182867839	1079.624566524
0	58365	96.401182867839	1079.333025315
0	58426	96.501182867839	1070.692652038
0	58500	96.621182867839	1082.029404477
0	58800	97.120544091945	1079.345452323
0	58883	97.261744640253	1092.4080286
0	58965	97.392320894168	1084.23628768
0	59276	97.901182867839	1090.40367577
0	59349	98.025574856489	1085.633667735
0	59417	98.132068370287	1051.524342342
0	59495	98.269440569977	1057.695993724
0	59577	98.394058847094	1051.738016926
0	59652	98.521182867839	1075.677151569
0	59814	98.781182867839	1098.160437798
0	59893	98.901182867839	1102.538416971
0	60037	99.141182867839	1101.573406268
0	60188	99.381182867839	1107.950798261
0	60251	99.485156062379	1078.244389446
0	60343	99.641182867839	1092.693273366
0	60421	99.763864306005	1088.719924997
1	69	0.261182867839	133.93870897
1	197	0.461182867839	214.719623559
1	294	0.640944921206	268.036930849
1	436	0.861182867839	383.918412634
1	538	1.041182867839	440.238010633
1	658	1.241182867839	508.241959783
1	776	1.440212504883	594.043816256
1	912	1.661182867839	684.132404169
1	1027	1.861182867839	753.479231077
1	1154	2.064628569775	848.379453707
1	1257	2.241182867839	923.012480494
1	1342	2.381182867839	954.947004936
1	1448	2.551182867839	1012.725725533
1	1717	3.001182867839	1091.361372029
1	1857	3.23624745729	1076.995345548
1	2227	3.841182867839	1080.150298548
1	2329	4.001182867839	1091.221752353
1	2401	4.121182867839	1067.134984375
1	2483	4.252628280249	1066.380886959
1	2645	4.521182867839	1073.428552052
1	2729	4.661182867839	1091.857630328
1	2896	4.931182867839	1085.06415432
1	2989	5.085125035982	1095.759657821
1	3064	5.201182867839	1089.140355666
1	3197	5.421182867839	1082.502821439
1	3554	6.01309041633	1070.786361078
1	3634	6.141182867839	1096.057895857
1	3724	6.279440706218	1107.19079539
1	3793	6.396895673024	1094.293509148
1	3852	6.501182867839	1091.719682919
1	4035	6.781182867839	1098.036943834
1	4167	7.021182867839	1091.120649771
1	4424	7.441182867839	1084.287258815
1	4501	7.577071613653	1082.713283795
1	4589	7.721182867839	1092.961372647
1	4673	7.861182867839	1103.640864149
1	4759	8.001182867839	1095.562356266
1	4850	8.141182867839	1104.039959489
1	5083	8.521182867839	1093.180760558
1	5282	8.854651326609	1102.74251586
1	5331	8.941182867839	1081.926725009
1	5408	9.061182867839	1089.658364375
1	5466	9.158349075317	1081.997091136
1	5537	9.27830034167	1088.842450093
1	5676	9.501182867839	1082.398898409
1	5756	9.641182867839	1093.018916571
1	5843	9.781182867839	1097.25997913
1	5974	10.001182867839	1088.53825128
1	6045	10.121182867839	1088.904467216
1	6132	10.254875305798	1077.069669233
1	6225	10.401182867839	1088.875980266
1	6287	10.501182867839	1076.87496658
1	6373	10.641182867839	1093.968025335
1	6449	10.771182867839	1095.180467473
1	6520	10.891182867839	1083.7355455
1	6690	11.181182867839	1089.015745994
1	6838	11.421182867839	1080.653882716
1	6932	11.581182867839	1102.099430112
1	7007	11.701182867839	1101.646725401
1	7080	11.821182867839	1103.241605268
1	7312	12.201182867839	1094.330954969
1	7396	12.341182867839	1093.582630898
1	7452	12.431182867839	1071.505346503
1	7541	12.581182867839	1087.01693323
1	7831	13.061182867839	1093.937354268
1	8521	14.201182867839	1106.479456904
1	8649	14.401182867839	1097.57170981
1	8868	14.761182867839	1096.930722394
1	8927	14.861182867839	1071.440362805
1	9195	15.301182867839	1090.428768273
1	9283	15.441182867839	1084.439627719
1	9368	15.581182867839	1095.43428232
1	9436	15.693622788775	1091.09265431
1	9497	15.793723436843	1089.212526236
1	9578	15.921182867839	1079.6777612
1	9715	16.154092065445	1087.825773372
1	9791	16.281182867839	1084.554106901
1	9943	16.521182867839	1101.317530294
1	9995	16.611194413586	1089.450823625
1	10071	16.734107364051	1080.484639276
1	10159	16.881182867839	1092.647718972
1	10223	16.995358642589	1063.269365225
1	10313	17.141182867839	1062.270185664
1	10488	17.441182867839	1098.334783687
1	10543	17.521182867839	1075.408037571
1	10612	17.631182867839	1059.988518253
1	10695	17.761182867839	1067.075567788
1	10773	17.901182867839	1087.092199177
1	10848	18.021182867839	1075.82428925
1	11183	18.561182867839	1094.728788679
1	11232	18.647215321569	1062.100444567
1	11384	18.908785175299	1101.835532422
1	11460	19.030082472856	1106.523285567
1	11625	19.301182867839	1094.994574042
1	11695	19.421182867839	1089.941415628
1	11778	19.561182867839	1095.854418345
1	11856	19.691182867839	1088.512599538
1	11963	19.861182867839	1109.672509301
1	12133	20.141182867839	1094.204195926
1	12203	20.261182867839	1070.170289888
1	12293	20.410930336393	1080.323780169
1	12375	20.541182867839	1074.504806194
1	12450	20.660581731645	1072.012957354
1	12637	20.961182867839	1077.077792007
1	12878	21.361182867839	1094.505935586
1	13255	21.981182867839	1092.159412077
1	13488	22.371182867839	1080.288006977
1	13553	22.484066142689	1091.467743605
1	13893	23.061182867839	1091.787458249
1	13954	23.161182867839	1082.29977731
1	14035	23.301182867839	1105.073254172
1	14111	23.429730459371	1111.554772165
1	14169	23.521182867839	1098.753376741
1	14246	23.641182867839	1097.91878904
1	14318	23.761182867839	1074.117446577
1	14387	23.881182867839	1088.322522976
1	14461	24.001182867839	1089.000152809
1	14541	24.135177907159	1094.293599939
1	14605	24.241182867839	1095.094622461
1	14691	24.381182867839	1096.439119763
1	14752	24.481182867839	1091.452472468
1	14850	24.642532459586	1103.151998556
1	14918	24.761182867839	1085.249146172
1	14992	24.871187741134	1055.528696783
1	15091	25.041182867839	1090.477420064
1	15173	25.181182867839	1086.00502468
1	15351	25.458818281267	1066.882063816
1	15436	25.601182867839	1105.468322363
1	15494	25.701182867839	1098.650472253
1	15570	25.821182867839	1100.603748889
1	15629	25.921182867839	1099.995190705
1	15983	26.501182867839	1092.364650572
1	16130	26.741182867839	1096.235256072
1	16265	26.958357254636	1054.597942805
1	16348	27.101182867839	1084.158389786
1	16429	27.241182867839	1092.823065923
1	16494	27.351182867839	1085.566177269
1	16571	27.471182867839	1081.378534025
1	16648	27.601182867839	1071.817162485
1	17028	28.241182867839	1077.035103925
1	17532	29.061182867839	1096.68944078
1	17627	29.210775122197	1103.691265935
1	17838	29.567708504618	1091.174722444
1	17908	29.688861226534	1092.711497522
1	17964	29.781182867839	1076.718660371
1	18035	29.901182867839	1078.544572323
1	18134	30.061182867839	1099.111524228
1	18188	30.161182867839	1091.312627533
1	18250	30.261182867839	1090.407809642
1	18413	30.521182867839	1100.251848804
1	18477	30.621182867839	1093.474427221
1	18549	30.741182867839	1092.321705305
1	18620	30.860161097685	1069.947383732
1	18721	31.021182867839	1090.851366177
1	18875	31.271182867839	1088.240258925
1	18959	31.416602753312	1093.606400517
1	19191	31.817204141185	1094.094019269
1	19268	31.941182867839	1079.51068659
1	19368	32.107640957413	1112.758920857
1	19431	32.201182867839	1073.98437222
1	19514	32.338813269766	1086.010738314
1	19587	32.461182867839	1084.580178527
1	19670	32.601182867839	1079.143506627
1	19741	32.727189691923	1082.156570528
1	19895	32.976688682531	1094.589805258
1	19954	33.081182867839	1091.364510436
1	20088	33.301182867839	1089.756110277
1	20245	33.552545829243	1083.551201635
1	20334	33.701182867839	1097.765093648
1	20399	33.801182867839	1072.264083523
1	20554	34.061182867839	1088.991435447
1	20879	34.594320217703	1081.77445246
1	20942	34.701182867839	1087.283191251
1	21016	34.821182867839	1098.836885598
1	21078	34.921182867839	1084.042286845
1	21161	35.065436253324	1098.248987988
1	21325	35.341182867839	1095.429978903
1	21409	35.481182867839	1099.087427565
1	21497	35.612851971132	1084.382041107
1	21574	35.741182867839	1091.205657028
1	21664	35.881182867839	1104.114537205
1	21733	36.001182867839	1083.551592229
1	21940	36.348970517024	1106.262036833
1	21982	36.411182867839	1058.464893492
1	22046	36.521182867839	1055.484881874
1	22131	36.668536398158	1095.684491026
1	22189	36.761182867839	1084.652263452
1	22262	36.881182867839	1077.953367384
1	22344	37.011182867839	1093.146978961
1	22432	37.15512447338	1092.850343415
1	22726	37.641182867839	1089.052936106
1	22884	37.907827675581	1077.556289159
1	23048	38.181182867839	1107.402795478
1	23094	38.268369607074	1071.437032261
1	23178	38.406005062955	1090.351788738
1	23327	38.666804777319	1098.658203919
1	23400	38.781717067201	1088.873231182
1	23741	39.361182867839	1099.525636064
1	23799	39.452572638149	1086.567639194
1	23881	39.595279488762	1093.396514742
1	23959	39.727922793947	1101.118080628
1	24033	39.841182867839	1099.465864638
1	24118	39.981182867839	1099.221942383
1	24179	40.074219517856	1050.226547041
1	24262	40.218523759255	1062.502558905
1	24340	40.341182867839	1068.156630066
1	24505	40.621182867839	1075.903443077
1	24818	41.141182867839	1087.747555131
1	24961	41.381182867839	1099.80923015
1	25000	41.441182867839	1052.472088054
1	25319	41.976858138642	1074.205206676
1	25406	42.121182867839	1091.479485208
1	25650	42.521182867839	1092.58348578
1	25712	42.621182867839	1080.48282534
1	25796	42.761182867839	1101.918086646
1	26083	43.241182867839	1072.835849946
1	26381	43.721182867839	1082.928067463
1	26453	43.831182867839	1092.419820357
1	26545	43.981182867839	1095.148271878
1	26604	44.081182867839	1084.941058102
1	26753	44.321182867839	1079.00599257
1	26846	44.470280280661	1104.025737398
1	26906	44.561182867839	1079.365984459
1	26977	44.681182867839	1091.721633877
1	27048	44.801182867839	1067.18341649
1	27127	44.934155445686	1086.632127088
1	27272	45.184085402484	1090.765864883
1	27410	45.421182867839	1099.812699023
1	27538	45.641182867839	1107.196425181
1	27612	45.761182867839	1108.882677956
1	27687	45.881182867839	1099.978648345
1	27736	45.961182867839	1077.027486153
1	27892	46.21542703669	1071.341698206
1	27967	46.345776495269	1085.39841482
1	28050	46.481182867839	1086.630315355
1	28210	46.741182867839	1094.690930343
1	28259	46.821182867839	1071.767736548
1	28339	46.956164524799	1082.574360802
1	28426	47.101182867839	1085.376353238
1	28472	47.171182867839	1046.008308076
1	28566	47.321182867839	1085.909986503
1	28628	47.421182867839	1075.275866229
1	28700	47.534344010418	1066.20574102
1	28797	47.701182867839	1085.71674419
1	28855	47.801182867839	1078.141891052
1	29087	48.181182867839	1078.481865684
1	29226	48.408123444788	1088.531506579
1	29310	48.542399576745	1074.933211508
1	29396	48.687164196508	1081.894146654
1	29485	48.821182867839	1102.281045048
1	29566	48.961182867839	1097.889329766
1	29648	49.101182867839	1091.063472399
1	29719	49.221182867839	1092.040988473
1	29851	49.441182867839	1083.059487051
1	29944	49.591182867839	1088.783355094