file 24427 1692388666                                           
version 3
run high-ttraffic-0-20230818-22:56:57-1228
attr configname high-ttraffic
attr datetime 20230818-22:56:57
attr datetimef 20230818-225657
attr experiment high-ttraffic
attr inifile omnetpp.ini
attr iterationvars ""
attr iterationvarsd ""
attr iterationvarsf ""
attr measurement ""
attr network fogsim1.net1
attr processid 1228
attr repetition 0
attr replication #0
attr resultdir results
attr runnumber 0
attr seedset 0
config network fogsim1.net1
config sim-time-limit 10s
config **.pc*.messagesGenerateLowerBound "100.0e-3  //10ms"
config **.pc*.messagesGenerateUpperBound "150.0e-3   //150ms"
config **.fogNode*.queueSize 5
config **.fogNode*.processingDelay 15.0e-3
config **.Server.processingDelay 10.0e-3
config **.Server.queueSize 100
config **.Server.wattsConsumePerSecond 400

vector 0 net1.pc9 "Messages Delay" ETV
vector 1 net1.pc7 "Messages Delay" ETV
vector 2 net1.pc1 "Messages Delay" ETV
vector 3 net1.pc5 "Messages Delay" ETV
vector 4 net1.pc3 "Messages Delay" ETV
vector 5 net1.pc10 "Messages Delay" ETV
vector 6 net1.pc2 "Messages Delay" ETV
vector 7 net1.pc8 "Messages Delay" ETV
vector 8 net1.pc4 "Messages Delay" ETV
vector 9 net1.pc6 "Messages Delay" ETV
0	1223 2295 58 5711 0.241182867839 8.037260282162 63 96.590574841 143.934031135 7635.159125522 931027.81832208
1	3518 2336 67 5675 0.251182867839 7.985953117031 64 101.136962666 170.274240998 7991.980114263 1006372.1747053
2	5854 2297 78 5631 0.261182867839 7.922668190141 63 91.226717905 184.324512903 7811.651536231 981710.15021476
3	8151 2263 87 5672 0.271182867839 7.980953117031 62 102.367418417 168.551866936 7715.122033989 971038.89331573
4	10414 2246 98 5710 0.281182867839 8.035953117031 62 97.052047034 173.085067923 7647.513721701 954873.3223578
5	12660 2296 115 5665 0.303477509594 7.975953117031 63 87.028985326 174.810122886 7562.990444854 920053.11899799
6	14956 2291 117 5697 0.306182867839 8.015953117031 63 101.413697051 176.54063702 7968.380431753 1022230.935937
7	17247 2321 124 5688 0.31146330828 8.000953117031 64 97.86328658 176.092480409 7963.010904657 1005579.7436627
8	19568 2229 133 5644 0.326182867839 7.942668190141 61 89.655115548 183.969580634 7650.472855078 975624.41670094
9	21797 2258 138 5659 0.331780600575 7.965953117031 62 97.947114107 188.883319583 7640.488848968 957710.79510933
0	24055 37 5813 5813 8.170953181031 8.170953181031 1 118.902118581 118.902118581 118.902118581 14137.71380305
1	24092 37 5755 5755 8.100953181031 8.100953181031 1 129.428677567 129.428677567 129.428677567 16751.782576742
2	24129 37 5733 5733 8.069003333215 8.069003333215 1 128.121829377 128.121829377 128.121829377 16415.203162909
3	24166 37 5789 5789 8.140953181031 8.140953181031 1 134.173258775 134.173258775 134.173258775 18002.463370303
4	24203 37 5805 5805 8.160953181031 8.160953181031 1 114.261787013 114.261787013 114.261787013 13055.755971404
5	24240 37 5774 5774 8.120953181031 8.120953181031 1 133.692962869 133.692962869 133.692962869 17873.808320692
6	24277 37 5799 5799 8.150953181031 8.150953181031 1 131.949911816 131.949911816 131.949911816 17410.77922825
7	24314 37 5794 5794 8.145953181031 8.145953181031 1 158.037604266 158.037604266 158.037604266 24975.884362137
8	24351 37 5722 5722 8.050953117031 8.050953117031 1 111.212229003 111.212229003 111.212229003 12368.159879816
9	24388 37 5767 5767 8.110953181031 8.110953181031 1 124.478987249 124.478987249 124.478987249 15495.018266537

