file 12564 1692385209                                           
version 3
run low-traffic-0-20230818-22:00:03-2056
attr configname low-traffic
attr datetime 20230818-22:00:03
attr datetimef 20230818-220003
attr experiment low-traffic
attr inifile omnetpp.ini
attr iterationvars ""
attr iterationvarsd ""
attr iterationvarsf ""
attr measurement ""
attr network fogsim1.net1
attr processid 2056
attr repetition 0
attr replication #0
attr resultdir results
attr runnumber 0
attr seedset 0
config network fogsim1.net1
config sim-time-limit 10s
config **.pc*.messagesGenerateLowerBound "100.0e-3  //100ms"
config **.pc*.messagesGenerateUpperBound "500.0e-3  //500ms"
config **.fogNode*.queueSize 5
config **.fogNode*.processingDelay 20.0e-3
config **.Server.processingDelay 10.0e-3
config **.Server.queueSize 100
config **.Server.wattsConsumePerSecond 400

vector 0 net1.pc9 "Messages Delay" ETV
vector 1 net1.pc7 "Messages Delay" ETV
vector 2 net1.pc1 "Messages Delay" ETV
vector 3 net1.pc5 "Messages Delay" ETV
vector 4 net1.pc2 "Messages Delay" ETV
vector 5 net1.pc10 "Messages Delay" ETV
vector 6 net1.pc3 "Messages Delay" ETV
vector 7 net1.pc8 "Messages Delay" ETV
vector 8 net1.pc4 "Messages Delay" ETV
vector 9 net1.pc6 "Messages Delay" ETV
0	1217 1131 38 3189 0.409425542559 9.980615141243 32 109.485523456 149.034991541 4119.61864092 532964.06968072
1	2348 1201 56 3159 0.447953398953 9.894917574635 34 110.848104897 165.877256039 4518.200815868 604331.18820314
2	3549 1058 62 3136 0.457953398953 9.822936490457 30 107.623964174 155.257839322 3943.942990759 522456.21568049
3	4607 1161 70 3193 0.477953398953 9.990615141243 33 114.949433009 137.50048662 4232.332170174 543882.7945171
4	5768 1143 71 3112 0.477953398953 9.760573415887 32 105.269264277 149.011834669 4182.659371165 549471.67731321
5	6911 1175 78 3104 0.487953398953 9.747558797225 33 108.149476386 145.428011138 4296.676212419 562330.28020556
6	8086 1027 80 3182 0.497706361636 9.970615141243 29 109.726038351 148.09253212 3739.780915964 484642.8359081
7	9113 1205 99 3122 0.557953462953 9.784917510635 34 112.323557472 147.329351123 4385.329206391 567983.07968235
8	10318 1106 103 3132 0.567953462953 9.812936490457 31 110.904189571 149.91352776 4057.614715121 534543.77680917
9	11424 1138 107 3145 0.577953462953 9.84681102034 32 113.708215798 149.938993019 4275.774292081 573439.3623946

